n -t * -s 0  -x 152 -y 362 -Z 0 -z 20  -v circle -c black
n -t * -s 1  -x 362 -y 461 -Z 0 -z 20  -v circle -c black
n -t * -s 2  -x 542 -y 473 -Z 0 -z 20  -v circle -c black
n -t * -s 3  -x 715 -y 461 -Z 0 -z 20  -v circle -c black
n -t * -s 4  -x 887 -y 437 -Z 0 -z 20  -v circle -c black
n -t * -s 5  -x 1051 -y 414 -Z 0 -z 20  -v circle -c black
n -t * -s 6  -x 241 -y 222 -Z 0 -z 20  -v circle -c black
n -t * -s 7  -x 455 -y 114 -Z 0 -z 20  -v circle -c black
n -t * -s 8  -x 624 -y 99 -Z 0 -z 20  -v circle -c black
n -t * -s 9  -x 749 -y 115 -Z 0 -z 20  -v circle -c black
n -t * -s 10  -x 983 -y 165 -Z 0 -z 20  -v circle -c black
n -t * -s 11  -x 1122 -y 260 -Z 0 -z 20  -v circle -c black
V -t * -v 1.0a5 -a 0
W -t * -x 1222 -y 573
A -t * -n 1 -p 0 -o 0x7fffffff -c 30 -a 1
A -t * -h 1 -m 1073741823 -s 0
+ -t 1.000000000 -s 0 -d -1 -p cbr -e 1000 -c 2 -a 0 -i 0 -k AGT 
- -t 1.000000000 -s 0 -d -1 -p cbr -e 1000 -c 2 -a 0 -i 0 -k AGT
h -t 1.000000000 -s 0 -d -1 -p cbr -e 1000 -c 2 -a 0 -i 0 -k AGT
+ -t 1.000000000 -s 0 -d -1 -p AODV -e 48 -c 2 -a 0 -i 0 -k RTR 
- -t 1.000000000 -s 0 -d -1 -p AODV -e 48 -c 2 -a 0 -i 0 -k RTR
h -t 1.000000000 -s 0 -d -1 -p AODV -e 48 -c 2 -a 0 -i 0 -k RTR
+ -t 1.000535000 -s 0 -d -1 -p AODV -e 106 -c 2 -a 0 -i 0 -k MAC 
- -t 1.000535000 -s 0 -d -1 -p AODV -e 106 -c 2 -a 0 -i 0 -k MAC
h -t 1.000535000 -s 0 -d -1 -p AODV -e 106 -c 2 -a 0 -i 0 -k MAC
r -t 1.001383553 -s 6 -d -1 -p AODV -e 48 -c 2 -a 0 -i 0 -k MAC
r -t 1.001383774 -s 1 -d -1 -p AODV -e 48 -c 2 -a 0 -i 0 -k MAC
r -t 1.001408553 -s 6 -d -1 -p AODV -e 48 -c 2 -a 0 -i 0 -k RTR
r -t 1.001408774 -s 1 -d -1 -p AODV -e 48 -c 2 -a 0 -i 0 -k RTR
+ -t 1.001550600 -s 6 -d -1 -p AODV -e 48 -c 2 -a 0 -i 0 -k RTR 
- -t 1.001550600 -s 6 -d -1 -p AODV -e 48 -c 2 -a 0 -i 0 -k RTR
h -t 1.001550600 -s 6 -d -1 -p AODV -e 48 -c 2 -a 0 -i 0 -k RTR
+ -t 1.001945600 -s 6 -d -1 -p AODV -e 106 -c 2 -a 0 -i 0 -k MAC 
- -t 1.001945600 -s 6 -d -1 -p AODV -e 106 -c 2 -a 0 -i 0 -k MAC
h -t 1.001945600 -s 6 -d -1 -p AODV -e 106 -c 2 -a 0 -i 0 -k MAC
+ -t 1.002290001 -s 1 -d -1 -p AODV -e 48 -c 2 -a 0 -i 0 -k RTR 
- -t 1.002290001 -s 1 -d -1 -p AODV -e 48 -c 2 -a 0 -i 0 -k RTR
h -t 1.002290001 -s 1 -d -1 -p AODV -e 48 -c 2 -a 0 -i 0 -k RTR
r -t 1.002794153 -s 0 -d -1 -p AODV -e 48 -c 2 -a 0 -i 0 -k MAC
r -t 1.002794399 -s 7 -d -1 -p AODV -e 48 -c 2 -a 0 -i 0 -k MAC
r -t 1.002819153 -s 0 -d -1 -p AODV -e 48 -c 2 -a 0 -i 0 -k RTR
r -t 1.002819399 -s 7 -d -1 -p AODV -e 48 -c 2 -a 0 -i 0 -k RTR
+ -t 1.002819399 -s 7 -d 6 -p AODV -e 44 -c 2 -a 0 -i 0 -k RTR 
- -t 1.002819399 -s 7 -d 6 -p AODV -e 44 -c 2 -a 0 -i 0 -k RTR
h -t 1.002819399 -s 7 -d 6 -p AODV -e 44 -c 2 -a 0 -i 0 -k RTR
+ -t 1.003074399 -s 7 -d -1 -p ARP -e 86 -c 2 -a 0 -i 0 -k MAC 
- -t 1.003074399 -s 7 -d -1 -p ARP -e 86 -c 2 -a 0 -i 0 -k MAC
h -t 1.003074399 -s 7 -d -1 -p ARP -e 86 -c 2 -a 0 -i 0 -k MAC
r -t 1.003762964 -s 8 -d -1 -p ARP -e 28 -c 2 -a 0 -i 0 -k MAC
r -t 1.003763198 -s 6 -d -1 -p ARP -e 28 -c 2 -a 0 -i 0 -k MAC
+ -t 1.004177596 -s 1 -d -1 -p AODV -e 106 -c 2 -a 0 -i 0 -k MAC 
- -t 1.004177596 -s 1 -d -1 -p AODV -e 106 -c 2 -a 0 -i 0 -k MAC
h -t 1.004177596 -s 1 -d -1 -p AODV -e 106 -c 2 -a 0 -i 0 -k MAC
+ -t 1.004178198 -s 6 -d -1 -p RTS -e 44 -c 2 -a 0 -i 0 -k MAC 
- -t 1.004178198 -s 6 -d -1 -p RTS -e 44 -c 2 -a 0 -i 0 -k MAC
h -t 1.004178198 -s 6 -d -1 -p RTS -e 44 -c 2 -a 0 -i 0 -k MAC
d -t 1.004178997 -s 7 -d -1 -p RTS -e 44 -c 2 -a 0 -i 0 -k MAC
r -t 1.005026197 -s 2 -d -1 -p AODV -e 48 -c 2 -a 0 -i 0 -k MAC
d -t 1.005026370 -s 0 -d -1 -p AODV -e 106 -c 2 -a 0 -i 0 -k MAC
r -t 1.005051197 -s 2 -d -1 -p AODV -e 48 -c 2 -a 0 -i 0 -k RTR
+ -t 1.006480489 -s 6 -d -1 -p RTS -e 44 -c 2 -a 0 -i 0 -k MAC 
- -t 1.006480489 -s 6 -d -1 -p RTS -e 44 -c 2 -a 0 -i 0 -k MAC
h -t 1.006480489 -s 6 -d -1 -p RTS -e 44 -c 2 -a 0 -i 0 -k MAC
+ -t 1.006692652 -s 2 -d -1 -p AODV -e 48 -c 2 -a 0 -i 0 -k RTR 
- -t 1.006692652 -s 2 -d -1 -p AODV -e 48 -c 2 -a 0 -i 0 -k RTR
h -t 1.006692652 -s 2 -d -1 -p AODV -e 48 -c 2 -a 0 -i 0 -k RTR
r -t 1.006833288 -s 7 -d -1 -p RTS -e 44 -c 2 -a 0 -i 0 -k MAC
+ -t 1.006843288 -s 7 -d -1 -p CTS -e 38 -c 2 -a 0 -i 0 -k MAC 
- -t 1.006843288 -s 7 -d -1 -p CTS -e 38 -c 2 -a 0 -i 0 -k MAC
h -t 1.006843288 -s 7 -d -1 -p CTS -e 38 -c 2 -a 0 -i 0 -k MAC
r -t 1.007148087 -s 6 -d -1 -p CTS -e 38 -c 2 -a 0 -i 0 -k MAC
+ -t 1.007158087 -s 6 -d -1 -p ARP -e 86 -c 2 -a 0 -i 0 -k MAC 
- -t 1.007158087 -s 6 -d -1 -p ARP -e 86 -c 2 -a 0 -i 0 -k MAC
h -t 1.007158087 -s 6 -d -1 -p ARP -e 86 -c 2 -a 0 -i 0 -k MAC
r -t 1.007846886 -s 7 -d -1 -p ARP -e 28 -c 2 -a 0 -i 0 -k MAC
+ -t 1.007856886 -s 7 -d -1 -p ACK -e 38 -c 2 -a 0 -i 0 -k MAC 
- -t 1.007856886 -s 7 -d -1 -p ACK -e 38 -c 2 -a 0 -i 0 -k MAC
h -t 1.007856886 -s 7 -d -1 -p ACK -e 38 -c 2 -a 0 -i 0 -k MAC
+ -t 1.008000000 -s 0 -d -1 -p cbr -e 1000 -c 2 -a 0 -i 1 -k AGT 
- -t 1.008000000 -s 0 -d -1 -p cbr -e 1000 -c 2 -a 0 -i 1 -k AGT
h -t 1.008000000 -s 0 -d -1 -p cbr -e 1000 -c 2 -a 0 -i 1 -k AGT
r -t 1.008161685 -s 6 -d -1 -p ACK -e 38 -c 2 -a 0 -i 0 -k MAC
+ -t 1.008370886 -s 7 -d -1 -p RTS -e 44 -c 2 -a 0 -i 0 -k MAC 
- -t 1.008370886 -s 7 -d -1 -p RTS -e 44 -c 2 -a 0 -i 0 -k MAC
h -t 1.008370886 -s 7 -d -1 -p RTS -e 44 -c 2 -a 0 -i 0 -k MAC
r -t 1.008723685 -s 6 -d -1 -p RTS -e 44 -c 2 -a 0 -i 0 -k MAC
+ -t 1.008733685 -s 6 -d -1 -p CTS -e 38 -c 2 -a 0 -i 0 -k MAC 
- -t 1.008733685 -s 6 -d -1 -p CTS -e 38 -c 2 -a 0 -i 0 -k MAC
h -t 1.008733685 -s 6 -d -1 -p CTS -e 38 -c 2 -a 0 -i 0 -k MAC
r -t 1.009038484 -s 7 -d -1 -p CTS -e 38 -c 2 -a 0 -i 0 -k MAC
+ -t 1.009048484 -s 7 -d 6 -p AODV -e 102 -c 2 -a 0 -i 0 -k MAC 
- -t 1.009048484 -s 7 -d 6 -p AODV -e 102 -c 2 -a 0 -i 0 -k MAC
h -t 1.009048484 -s 7 -d 6 -p AODV -e 102 -c 2 -a 0 -i 0 -k MAC
r -t 1.009865283 -s 6 -d 6 -p AODV -e 44 -c 2 -a 0 -i 0 -k MAC
+ -t 1.009875283 -s 6 -d -1 -p ACK -e 38 -c 2 -a 0 -i 0 -k MAC 
- -t 1.009875283 -s 6 -d -1 -p ACK -e 38 -c 2 -a 0 -i 0 -k MAC
h -t 1.009875283 -s 6 -d -1 -p ACK -e 38 -c 2 -a 0 -i 0 -k MAC
+ -t 1.009890283 -s 6 -d 0 -p AODV -e 44 -c 2 -a 0 -i 0 -k RTR 
- -t 1.009890283 -s 6 -d 0 -p AODV -e 44 -c 2 -a 0 -i 0 -k RTR
h -t 1.009890283 -s 6 -d 0 -p AODV -e 44 -c 2 -a 0 -i 0 -k RTR
r -t 1.010180082 -s 7 -d -1 -p ACK -e 38 -c 2 -a 0 -i 0 -k MAC
+ -t 1.010449283 -s 6 -d -1 -p ARP -e 86 -c 2 -a 0 -i 0 -k MAC 
- -t 1.010449283 -s 6 -d -1 -p ARP -e 86 -c 2 -a 0 -i 0 -k MAC
h -t 1.010449283 -s 6 -d -1 -p ARP -e 86 -c 2 -a 0 -i 0 -k MAC
r -t 1.011137836 -s 0 -d -1 -p ARP -e 28 -c 2 -a 0 -i 0 -k MAC
r -t 1.011138082 -s 7 -d -1 -p ARP -e 28 -c 2 -a 0 -i 0 -k MAC
+ -t 1.011672836 -s 0 -d -1 -p RTS -e 44 -c 2 -a 0 -i 0 -k MAC 
- -t 1.011672836 -s 0 -d -1 -p RTS -e 44 -c 2 -a 0 -i 0 -k MAC
h -t 1.011672836 -s 0 -d -1 -p RTS -e 44 -c 2 -a 0 -i 0 -k MAC
r -t 1.012025389 -s 6 -d -1 -p RTS -e 44 -c 2 -a 0 -i 0 -k MAC
+ -t 1.012035389 -s 6 -d -1 -p CTS -e 38 -c 2 -a 0 -i 0 -k MAC 
- -t 1.012035389 -s 6 -d -1 -p CTS -e 38 -c 2 -a 0 -i 0 -k MAC
h -t 1.012035389 -s 6 -d -1 -p CTS -e 38 -c 2 -a 0 -i 0 -k MAC
r -t 1.012339942 -s 0 -d -1 -p CTS -e 38 -c 2 -a 0 -i 0 -k MAC
+ -t 1.012349942 -s 0 -d -1 -p ARP -e 86 -c 2 -a 0 -i 0 -k MAC 
- -t 1.012349942 -s 0 -d -1 -p ARP -e 86 -c 2 -a 0 -i 0 -k MAC
h -t 1.012349942 -s 0 -d -1 -p ARP -e 86 -c 2 -a 0 -i 0 -k MAC
r -t 1.013038495 -s 6 -d -1 -p ARP -e 28 -c 2 -a 0 -i 0 -k MAC
+ -t 1.013048495 -s 6 -d -1 -p ACK -e 38 -c 2 -a 0 -i 0 -k MAC 
- -t 1.013048495 -s 6 -d -1 -p ACK -e 38 -c 2 -a 0 -i 0 -k MAC
h -t 1.013048495 -s 6 -d -1 -p ACK -e 38 -c 2 -a 0 -i 0 -k MAC
r -t 1.013353048 -s 0 -d -1 -p ACK -e 38 -c 2 -a 0 -i 0 -k MAC
+ -t 1.013742495 -s 6 -d -1 -p RTS -e 44 -c 2 -a 0 -i 0 -k MAC 
- -t 1.013742495 -s 6 -d -1 -p RTS -e 44 -c 2 -a 0 -i 0 -k MAC
h -t 1.013742495 -s 6 -d -1 -p RTS -e 44 -c 2 -a 0 -i 0 -k MAC
r -t 1.014095048 -s 0 -d -1 -p RTS -e 44 -c 2 -a 0 -i 0 -k MAC
+ -t 1.014105048 -s 0 -d -1 -p CTS -e 38 -c 2 -a 0 -i 0 -k MAC 
- -t 1.014105048 -s 0 -d -1 -p CTS -e 38 -c 2 -a 0 -i 0 -k MAC
h -t 1.014105048 -s 0 -d -1 -p CTS -e 38 -c 2 -a 0 -i 0 -k MAC
r -t 1.014409601 -s 6 -d -1 -p CTS -e 38 -c 2 -a 0 -i 0 -k MAC
+ -t 1.014419601 -s 6 -d 0 -p AODV -e 102 -c 2 -a 0 -i 0 -k MAC 
- -t 1.014419601 -s 6 -d 0 -p AODV -e 102 -c 2 -a 0 -i 0 -k MAC
h -t 1.014419601 -s 6 -d 0 -p AODV -e 102 -c 2 -a 0 -i 0 -k MAC
r -t 1.015236154 -s 0 -d 0 -p AODV -e 44 -c 2 -a 0 -i 0 -k MAC
+ -t 1.015246154 -s 0 -d -1 -p ACK -e 38 -c 2 -a 0 -i 0 -k MAC 
- -t 1.015246154 -s 0 -d -1 -p ACK -e 38 -c 2 -a 0 -i 0 -k MAC
h -t 1.015246154 -s 0 -d -1 -p ACK -e 38 -c 2 -a 0 -i 0 -k MAC
+ -t 1.015261154 -s 0 -d 6 -p cbr -e 1020 -c 2 -a 0 -i 0 -k RTR 
- -t 1.015261154 -s 0 -d 6 -p cbr -e 1020 -c 2 -a 0 -i 0 -k RTR
h -t 1.015261154 -s 0 -d 6 -p cbr -e 1020 -c 2 -a 0 -i 0 -k RTR
r -t 1.015550707 -s 6 -d -1 -p ACK -e 38 -c 2 -a 0 -i 0 -k MAC
+ -t 1.015800154 -s 0 -d -1 -p RTS -e 44 -c 2 -a 0 -i 0 -k MAC 
- -t 1.015800154 -s 0 -d -1 -p RTS -e 44 -c 2 -a 0 -i 0 -k MAC
h -t 1.015800154 -s 0 -d -1 -p RTS -e 44 -c 2 -a 0 -i 0 -k MAC
+ -t 1.016000000 -s 0 -d -1 -p cbr -e 1000 -c 2 -a 0 -i 2 -k AGT 
- -t 1.016000000 -s 0 -d -1 -p cbr -e 1000 -c 2 -a 0 -i 2 -k AGT
h -t 1.016000000 -s 0 -d -1 -p cbr -e 1000 -c 2 -a 0 -i 2 -k AGT
+ -t 1.016000000 -s 0 -d 6 -p cbr -e 1020 -c 2 -a 0 -i 2 -k RTR 
- -t 1.016000000 -s 0 -d 6 -p cbr -e 1020 -c 2 -a 0 -i 2 -k RTR
h -t 1.016000000 -s 0 -d 6 -p cbr -e 1020 -c 2 -a 0 -i 2 -k RTR
r -t 1.016152707 -s 6 -d -1 -p RTS -e 44 -c 2 -a 0 -i 0 -k MAC
+ -t 1.016162707 -s 6 -d -1 -p CTS -e 38 -c 2 -a 0 -i 0 -k MAC 
- -t 1.016162707 -s 6 -d -1 -p CTS -e 38 -c 2 -a 0 -i 0 -k MAC
h -t 1.016162707 -s 6 -d -1 -p CTS -e 38 -c 2 -a 0 -i 0 -k MAC
r -t 1.016467260 -s 0 -d -1 -p CTS -e 38 -c 2 -a 0 -i 0 -k MAC
+ -t 1.016477260 -s 0 -d 6 -p cbr -e 1078 -c 2 -a 0 -i 0 -k MAC 
- -t 1.016477260 -s 0 -d 6 -p cbr -e 1078 -c 2 -a 0 -i 0 -k MAC
h -t 1.016477260 -s 0 -d 6 -p cbr -e 1078 -c 2 -a 0 -i 0 -k MAC
+ -t 1.024000000 -s 0 -d -1 -p cbr -e 1000 -c 2 -a 0 -i 3 -k AGT 
- -t 1.024000000 -s 0 -d -1 -p cbr -e 1000 -c 2 -a 0 -i 3 -k AGT
h -t 1.024000000 -s 0 -d -1 -p cbr -e 1000 -c 2 -a 0 -i 3 -k AGT
+ -t 1.024000000 -s 0 -d 6 -p cbr -e 1020 -c 2 -a 0 -i 3 -k RTR 
- -t 1.024000000 -s 0 -d 6 -p cbr -e 1020 -c 2 -a 0 -i 3 -k RTR
h -t 1.024000000 -s 0 -d 6 -p cbr -e 1020 -c 2 -a 0 -i 3 -k RTR
r -t 1.025101813 -s 6 -d 6 -p cbr -e 1020 -c 2 -a 0 -i 0 -k MAC
+ -t 1.025111813 -s 6 -d -1 -p ACK -e 38 -c 2 -a 0 -i 0 -k MAC 
- -t 1.025111813 -s 6 -d -1 -p ACK -e 38 -c 2 -a 0 -i 0 -k MAC
h -t 1.025111813 -s 6 -d -1 -p ACK -e 38 -c 2 -a 0 -i 0 -k MAC
+ -t 1.025126813 -s 6 -d 7 -p cbr -e 1020 -c 2 -a 0 -i 0 -k RTR 
- -t 1.025126813 -s 6 -d 7 -p cbr -e 1020 -c 2 -a 0 -i 0 -k RTR
h -t 1.025126813 -s 6 -d 7 -p cbr -e 1020 -c 2 -a 0 -i 0 -k RTR
+ -t 1.025261154 -s 0 -d 6 -p cbr -e 1020 -c 2 -a 0 -i 1 -k RTR 
- -t 1.025261154 -s 0 -d 6 -p cbr -e 1020 -c 2 -a 0 -i 1 -k RTR
h -t 1.025261154 -s 0 -d 6 -p cbr -e 1020 -c 2 -a 0 -i 1 -k RTR
r -t 1.025416366 -s 0 -d -1 -p ACK -e 38 -c 2 -a 0 -i 0 -k MAC
+ -t 1.025486366 -s 0 -d -1 -p RTS -e 44 -c 2 -a 0 -i 0 -k MAC 
- -t 1.025486366 -s 0 -d -1 -p RTS -e 44 -c 2 -a 0 -i 0 -k MAC
h -t 1.025486366 -s 0 -d -1 -p RTS -e 44 -c 2 -a 0 -i 0 -k MAC
r -t 1.025838919 -s 6 -d -1 -p RTS -e 44 -c 2 -a 0 -i 0 -k MAC
+ -t 1.025848919 -s 6 -d -1 -p CTS -e 38 -c 2 -a 0 -i 0 -k MAC 
- -t 1.025848919 -s 6 -d -1 -p CTS -e 38 -c 2 -a 0 -i 0 -k MAC
h -t 1.025848919 -s 6 -d -1 -p CTS -e 38 -c 2 -a 0 -i 0 -k MAC
r -t 1.026153472 -s 0 -d -1 -p CTS -e 38 -c 2 -a 0 -i 0 -k MAC
+ -t 1.026163472 -s 0 -d 6 -p cbr -e 1078 -c 2 -a 0 -i 2 -k MAC 
- -t 1.026163472 -s 0 -d 6 -p cbr -e 1078 -c 2 -a 0 -i 2 -k MAC
h -t 1.026163472 -s 0 -d 6 -p cbr -e 1078 -c 2 -a 0 -i 2 -k MAC
+ -t 1.032000000 -s 0 -d -1 -p cbr -e 1000 -c 2 -a 0 -i 4 -k AGT 
- -t 1.032000000 -s 0 -d -1 -p cbr -e 1000 -c 2 -a 0 -i 4 -k AGT
h -t 1.032000000 -s 0 -d -1 -p cbr -e 1000 -c 2 -a 0 -i 4 -k AGT
+ -t 1.032000000 -s 0 -d 6 -p cbr -e 1020 -c 2 -a 0 -i 4 -k RTR 
- -t 1.032000000 -s 0 -d 6 -p cbr -e 1020 -c 2 -a 0 -i 4 -k RTR
h -t 1.032000000 -s 0 -d 6 -p cbr -e 1020 -c 2 -a 0 -i 4 -k RTR
r -t 1.034788025 -s 6 -d 6 -p cbr -e 1020 -c 2 -a 0 -i 2 -k MAC
+ -t 1.034798025 -s 6 -d -1 -p ACK -e 38 -c 2 -a 0 -i 0 -k MAC 
- -t 1.034798025 -s 6 -d -1 -p ACK -e 38 -c 2 -a 0 -i 0 -k MAC
h -t 1.034798025 -s 6 -d -1 -p ACK -e 38 -c 2 -a 0 -i 0 -k MAC
+ -t 1.034813025 -s 6 -d 7 -p cbr -e 1020 -c 2 -a 0 -i 2 -k RTR 
- -t 1.034813025 -s 6 -d 7 -p cbr -e 1020 -c 2 -a 0 -i 2 -k RTR
h -t 1.034813025 -s 6 -d 7 -p cbr -e 1020 -c 2 -a 0 -i 2 -k RTR
r -t 1.035102578 -s 0 -d -1 -p ACK -e 38 -c 2 -a 0 -i 0 -k MAC
+ -t 1.035172025 -s 6 -d -1 -p RTS -e 44 -c 2 -a 0 -i 0 -k MAC 
- -t 1.035172025 -s 6 -d -1 -p RTS -e 44 -c 2 -a 0 -i 0 -k MAC
h -t 1.035172025 -s 6 -d -1 -p RTS -e 44 -c 2 -a 0 -i 0 -k MAC
r -t 1.035524824 -s 7 -d -1 -p RTS -e 44 -c 2 -a 0 -i 0 -k MAC
+ -t 1.035534824 -s 7 -d -1 -p CTS -e 38 -c 2 -a 0 -i 0 -k MAC 
- -t 1.035534824 -s 7 -d -1 -p CTS -e 38 -c 2 -a 0 -i 0 -k MAC
h -t 1.035534824 -s 7 -d -1 -p CTS -e 38 -c 2 -a 0 -i 0 -k MAC
r -t 1.035839623 -s 6 -d -1 -p CTS -e 38 -c 2 -a 0 -i 0 -k MAC
+ -t 1.035849623 -s 6 -d 7 -p cbr -e 1078 -c 2 -a 0 -i 0 -k MAC 
- -t 1.035849623 -s 6 -d 7 -p cbr -e 1078 -c 2 -a 0 -i 0 -k MAC
h -t 1.035849623 -s 6 -d 7 -p cbr -e 1078 -c 2 -a 0 -i 0 -k MAC
+ -t 1.040000000 -s 0 -d -1 -p cbr -e 1000 -c 2 -a 0 -i 5 -k AGT 
- -t 1.040000000 -s 0 -d -1 -p cbr -e 1000 -c 2 -a 0 -i 5 -k AGT
h -t 1.040000000 -s 0 -d -1 -p cbr -e 1000 -c 2 -a 0 -i 5 -k AGT
+ -t 1.040000000 -s 0 -d 6 -p cbr -e 1020 -c 2 -a 0 -i 5 -k RTR 
- -t 1.040000000 -s 0 -d 6 -p cbr -e 1020 -c 2 -a 0 -i 5 -k RTR
h -t 1.040000000 -s 0 -d 6 -p cbr -e 1020 -c 2 -a 0 -i 5 -k RTR
r -t 1.044474422 -s 7 -d 7 -p cbr -e 1020 -c 2 -a 0 -i 0 -k MAC
+ -t 1.044484422 -s 7 -d -1 -p ACK -e 38 -c 2 -a 0 -i 0 -k MAC 
- -t 1.044484422 -s 7 -d -1 -p ACK -e 38 -c 2 -a 0 -i 0 -k MAC
h -t 1.044484422 -s 7 -d -1 -p ACK -e 38 -c 2 -a 0 -i 0 -k MAC
d -t 1.044499422 -s 7 -d 7 -p cbr -e 1020 -c 2 -a 0 -i 0 -k RTR
r -t 1.044789221 -s 6 -d -1 -p ACK -e 38 -c 2 -a 0 -i 0 -k MAC
+ -t 1.045279221 -s 6 -d -1 -p RTS -e 44 -c 2 -a 0 -i 0 -k MAC 
- -t 1.045279221 -s 6 -d -1 -p RTS -e 44 -c 2 -a 0 -i 0 -k MAC
h -t 1.045279221 -s 6 -d -1 -p RTS -e 44 -c 2 -a 0 -i 0 -k MAC
r -t 1.045632020 -s 7 -d -1 -p RTS -e 44 -c 2 -a 0 -i 0 -k MAC
+ -t 1.045642020 -s 7 -d -1 -p CTS -e 38 -c 2 -a 0 -i 0 -k MAC 
- -t 1.045642020 -s 7 -d -1 -p CTS -e 38 -c 2 -a 0 -i 0 -k MAC
h -t 1.045642020 -s 7 -d -1 -p CTS -e 38 -c 2 -a 0 -i 0 -k MAC
r -t 1.045946819 -s 6 -d -1 -p CTS -e 38 -c 2 -a 0 -i 0 -k MAC
+ -t 1.045956819 -s 6 -d 7 -p cbr -e 1078 -c 2 -a 0 -i 2 -k MAC 
- -t 1.045956819 -s 6 -d 7 -p cbr -e 1078 -c 2 -a 0 -i 2 -k MAC
h -t 1.045956819 -s 6 -d 7 -p cbr -e 1078 -c 2 -a 0 -i 2 -k MAC
+ -t 1.048000000 -s 0 -d -1 -p cbr -e 1000 -c 2 -a 0 -i 6 -k AGT 
- -t 1.048000000 -s 0 -d -1 -p cbr -e 1000 -c 2 -a 0 -i 6 -k AGT
h -t 1.048000000 -s 0 -d -1 -p cbr -e 1000 -c 2 -a 0 -i 6 -k AGT
+ -t 1.048000000 -s 0 -d 6 -p cbr -e 1020 -c 2 -a 0 -i 6 -k RTR 
- -t 1.048000000 -s 0 -d 6 -p cbr -e 1020 -c 2 -a 0 -i 6 -k RTR
h -t 1.048000000 -s 0 -d 6 -p cbr -e 1020 -c 2 -a 0 -i 6 -k RTR
r -t 1.054581618 -s 7 -d 7 -p cbr -e 1020 -c 2 -a 0 -i 2 -k MAC
+ -t 1.054591618 -s 7 -d -1 -p ACK -e 38 -c 2 -a 0 -i 0 -k MAC 
- -t 1.054591618 -s 7 -d -1 -p ACK -e 38 -c 2 -a 0 -i 0 -k MAC
h -t 1.054591618 -s 7 -d -1 -p ACK -e 38 -c 2 -a 0 -i 0 -k MAC
d -t 1.054606618 -s 7 -d 7 -p cbr -e 1020 -c 2 -a 0 -i 2 -k RTR
r -t 1.054896417 -s 6 -d -1 -p ACK -e 38 -c 2 -a 0 -i 0 -k MAC
+ -t 1.055490923 -s 0 -d -1 -p RTS -e 44 -c 2 -a 0 -i 0 -k MAC 
- -t 1.055490923 -s 0 -d -1 -p RTS -e 44 -c 2 -a 0 -i 0 -k MAC
h -t 1.055490923 -s 0 -d -1 -p RTS -e 44 -c 2 -a 0 -i 0 -k MAC
r -t 1.055843476 -s 6 -d -1 -p RTS -e 44 -c 2 -a 0 -i 0 -k MAC
+ -t 1.055853476 -s 6 -d -1 -p CTS -e 38 -c 2 -a 0 -i 0 -k MAC 
- -t 1.055853476 -s 6 -d -1 -p CTS -e 38 -c 2 -a 0 -i 0 -k MAC
h -t 1.055853476 -s 6 -d -1 -p CTS -e 38 -c 2 -a 0 -i 0 -k MAC
+ -t 1.056000000 -s 0 -d -1 -p cbr -e 1000 -c 2 -a 0 -i 7 -k AGT 
- -t 1.056000000 -s 0 -d -1 -p cbr -e 1000 -c 2 -a 0 -i 7 -k AGT
h -t 1.056000000 -s 0 -d -1 -p cbr -e 1000 -c 2 -a 0 -i 7 -k AGT
+ -t 1.056000000 -s 0 -d 6 -p cbr -e 1020 -c 2 -a 0 -i 7 -k RTR 
- -t 1.056000000 -s 0 -d 6 -p cbr -e 1020 -c 2 -a 0 -i 7 -k RTR
h -t 1.056000000 -s 0 -d 6 -p cbr -e 1020 -c 2 -a 0 -i 7 -k RTR
r -t 1.056158029 -s 0 -d -1 -p CTS -e 38 -c 2 -a 0 -i 0 -k MAC
+ -t 1.056168029 -s 0 -d 6 -p cbr -e 1078 -c 2 -a 0 -i 3 -k MAC 
- -t 1.056168029 -s 0 -d 6 -p cbr -e 1078 -c 2 -a 0 -i 3 -k MAC
h -t 1.056168029 -s 0 -d 6 -p cbr -e 1078 -c 2 -a 0 -i 3 -k MAC
+ -t 1.064000000 -s 0 -d -1 -p cbr -e 1000 -c 2 -a 0 -i 8 -k AGT 
- -t 1.064000000 -s 0 -d -1 -p cbr -e 1000 -c 2 -a 0 -i 8 -k AGT
h -t 1.064000000 -s 0 -d -1 -p cbr -e 1000 -c 2 -a 0 -i 8 -k AGT
+ -t 1.064000000 -s 0 -d 6 -p cbr -e 1020 -c 2 -a 0 -i 8 -k RTR 
- -t 1.064000000 -s 0 -d 6 -p cbr -e 1020 -c 2 -a 0 -i 8 -k RTR
h -t 1.064000000 -s 0 -d 6 -p cbr -e 1020 -c 2 -a 0 -i 8 -k RTR
r -t 1.064792582 -s 6 -d 6 -p cbr -e 1020 -c 2 -a 0 -i 3 -k MAC
+ -t 1.064802582 -s 6 -d -1 -p ACK -e 38 -c 2 -a 0 -i 0 -k MAC 
- -t 1.064802582 -s 6 -d -1 -p ACK -e 38 -c 2 -a 0 -i 0 -k MAC
h -t 1.064802582 -s 6 -d -1 -p ACK -e 38 -c 2 -a 0 -i 0 -k MAC
+ -t 1.064817582 -s 6 -d 7 -p cbr -e 1020 -c 2 -a 0 -i 3 -k RTR 
- -t 1.064817582 -s 6 -d 7 -p cbr -e 1020 -c 2 -a 0 -i 3 -k RTR
h -t 1.064817582 -s 6 -d 7 -p cbr -e 1020 -c 2 -a 0 -i 3 -k RTR
r -t 1.065107135 -s 0 -d -1 -p ACK -e 38 -c 2 -a 0 -i 0 -k MAC
+ -t 1.065557135 -s 0 -d -1 -p RTS -e 44 -c 2 -a 0 -i 0 -k MAC 
- -t 1.065557135 -s 0 -d -1 -p RTS -e 44 -c 2 -a 0 -i 0 -k MAC
h -t 1.065557135 -s 0 -d -1 -p RTS -e 44 -c 2 -a 0 -i 0 -k MAC
r -t 1.065909688 -s 6 -d -1 -p RTS -e 44 -c 2 -a 0 -i 0 -k MAC
+ -t 1.065919688 -s 6 -d -1 -p CTS -e 38 -c 2 -a 0 -i 0 -k MAC 
- -t 1.065919688 -s 6 -d -1 -p CTS -e 38 -c 2 -a 0 -i 0 -k MAC
h -t 1.065919688 -s 6 -d -1 -p CTS -e 38 -c 2 -a 0 -i 0 -k MAC
r -t 1.066224241 -s 0 -d -1 -p CTS -e 38 -c 2 -a 0 -i 0 -k MAC
+ -t 1.066234241 -s 0 -d 6 -p cbr -e 1078 -c 2 -a 0 -i 1 -k MAC 
- -t 1.066234241 -s 0 -d 6 -p cbr -e 1078 -c 2 -a 0 -i 1 -k MAC
h -t 1.066234241 -s 0 -d 6 -p cbr -e 1078 -c 2 -a 0 -i 1 -k MAC
+ -t 1.072000000 -s 0 -d -1 -p cbr -e 1000 -c 2 -a 0 -i 9 -k AGT 
- -t 1.072000000 -s 0 -d -1 -p cbr -e 1000 -c 2 -a 0 -i 9 -k AGT
h -t 1.072000000 -s 0 -d -1 -p cbr -e 1000 -c 2 -a 0 -i 9 -k AGT
+ -t 1.072000000 -s 0 -d 6 -p cbr -e 1020 -c 2 -a 0 -i 9 -k RTR 
- -t 1.072000000 -s 0 -d 6 -p cbr -e 1020 -c 2 -a 0 -i 9 -k RTR
h -t 1.072000000 -s 0 -d 6 -p cbr -e 1020 -c 2 -a 0 -i 9 -k RTR
r -t 1.074858794 -s 6 -d 6 -p cbr -e 1020 -c 2 -a 0 -i 1 -k MAC
+ -t 1.074868794 -s 6 -d -1 -p ACK -e 38 -c 2 -a 0 -i 0 -k MAC 
- -t 1.074868794 -s 6 -d -1 -p ACK -e 38 -c 2 -a 0 -i 0 -k MAC
h -t 1.074868794 -s 6 -d -1 -p ACK -e 38 -c 2 -a 0 -i 0 -k MAC
+ -t 1.074883794 -s 6 -d 7 -p cbr -e 1020 -c 2 -a 0 -i 1 -k RTR 
- -t 1.074883794 -s 6 -d 7 -p cbr -e 1020 -c 2 -a 0 -i 1 -k RTR
h -t 1.074883794 -s 6 -d 7 -p cbr -e 1020 -c 2 -a 0 -i 1 -k RTR
r -t 1.075173347 -s 0 -d -1 -p ACK -e 38 -c 2 -a 0 -i 0 -k MAC
+ -t 1.075402794 -s 6 -d -1 -p RTS -e 44 -c 2 -a 0 -i 0 -k MAC 
- -t 1.075402794 -s 6 -d -1 -p RTS -e 44 -c 2 -a 0 -i 0 -k MAC
h -t 1.075402794 -s 6 -d -1 -p RTS -e 44 -c 2 -a 0 -i 0 -k MAC
r -t 1.075755593 -s 7 -d -1 -p RTS -e 44 -c 2 -a 0 -i 0 -k MAC
+ -t 1.075765593 -s 7 -d -1 -p CTS -e 38 -c 2 -a 0 -i 0 -k MAC 
- -t 1.075765593 -s 7 -d -1 -p CTS -e 38 -c 2 -a 0 -i 0 -k MAC
h -t 1.075765593 -s 7 -d -1 -p CTS -e 38 -c 2 -a 0 -i 0 -k MAC
r -t 1.076070392 -s 6 -d -1 -p CTS -e 38 -c 2 -a 0 -i 0 -k MAC
+ -t 1.076080392 -s 6 -d 7 -p cbr -e 1078 -c 2 -a 0 -i 3 -k MAC 
- -t 1.076080392 -s 6 -d 7 -p cbr -e 1078 -c 2 -a 0 -i 3 -k MAC
h -t 1.076080392 -s 6 -d 7 -p cbr -e 1078 -c 2 -a 0 -i 3 -k MAC
+ -t 1.080000000 -s 0 -d -1 -p cbr -e 1000 -c 2 -a 0 -i 10 -k AGT 
- -t 1.080000000 -s 0 -d -1 -p cbr -e 1000 -c 2 -a 0 -i 10 -k AGT
h -t 1.080000000 -s 0 -d -1 -p cbr -e 1000 -c 2 -a 0 -i 10 -k AGT
+ -t 1.080000000 -s 0 -d 6 -p cbr -e 1020 -c 2 -a 0 -i 10 -k RTR 
- -t 1.080000000 -s 0 -d 6 -p cbr -e 1020 -c 2 -a 0 -i 10 -k RTR
h -t 1.080000000 -s 0 -d 6 -p cbr -e 1020 -c 2 -a 0 -i 10 -k RTR
r -t 1.084705191 -s 7 -d 7 -p cbr -e 1020 -c 2 -a 0 -i 3 -k MAC
+ -t 1.084715191 -s 7 -d -1 -p ACK -e 38 -c 2 -a 0 -i 0 -k MAC 
- -t 1.084715191 -s 7 -d -1 -p ACK -e 38 -c 2 -a 0 -i 0 -k MAC
h -t 1.084715191 -s 7 -d -1 -p ACK -e 38 -c 2 -a 0 -i 0 -k MAC
d -t 1.084730191 -s 7 -d 7 -p cbr -e 1020 -c 2 -a 0 -i 3 -k RTR
r -t 1.085019990 -s 6 -d -1 -p ACK -e 38 -c 2 -a 0 -i 0 -k MAC
+ -t 1.085429990 -s 6 -d -1 -p RTS -e 44 -c 2 -a 0 -i 0 -k MAC 
- -t 1.085429990 -s 6 -d -1 -p RTS -e 44 -c 2 -a 0 -i 0 -k MAC
h -t 1.085429990 -s 6 -d -1 -p RTS -e 44 -c 2 -a 0 -i 0 -k MAC
r -t 1.085782789 -s 7 -d -1 -p RTS -e 44 -c 2 -a 0 -i 0 -k MAC
+ -t 1.085792789 -s 7 -d -1 -p CTS -e 38 -c 2 -a 0 -i 0 -k MAC 
- -t 1.085792789 -s 7 -d -1 -p CTS -e 38 -c 2 -a 0 -i 0 -k MAC
h -t 1.085792789 -s 7 -d -1 -p CTS -e 38 -c 2 -a 0 -i 0 -k MAC
r -t 1.086097588 -s 6 -d -1 -p CTS -e 38 -c 2 -a 0 -i 0 -k MAC
+ -t 1.086107588 -s 6 -d 7 -p cbr -e 1078 -c 2 -a 0 -i 1 -k MAC 
- -t 1.086107588 -s 6 -d 7 -p cbr -e 1078 -c 2 -a 0 -i 1 -k MAC
h -t 1.086107588 -s 6 -d 7 -p cbr -e 1078 -c 2 -a 0 -i 1 -k MAC
+ -t 1.088000000 -s 0 -d -1 -p cbr -e 1000 -c 2 -a 0 -i 11 -k AGT 
- -t 1.088000000 -s 0 -d -1 -p cbr -e 1000 -c 2 -a 0 -i 11 -k AGT
h -t 1.088000000 -s 0 -d -1 -p cbr -e 1000 -c 2 -a 0 -i 11 -k AGT
+ -t 1.088000000 -s 0 -d 6 -p cbr -e 1020 -c 2 -a 0 -i 11 -k RTR 
- -t 1.088000000 -s 0 -d 6 -p cbr -e 1020 -c 2 -a 0 -i 11 -k RTR
h -t 1.088000000 -s 0 -d 6 -p cbr -e 1020 -c 2 -a 0 -i 11 -k RTR
r -t 1.094732387 -s 7 -d 7 -p cbr -e 1020 -c 2 -a 0 -i 1 -k MAC
+ -t 1.094742387 -s 7 -d -1 -p ACK -e 38 -c 2 -a 0 -i 0 -k MAC 
- -t 1.094742387 -s 7 -d -1 -p ACK -e 38 -c 2 -a 0 -i 0 -k MAC
h -t 1.094742387 -s 7 -d -1 -p ACK -e 38 -c 2 -a 0 -i 0 -k MAC
d -t 1.094757387 -s 7 -d 7 -p cbr -e 1020 -c 2 -a 0 -i 1 -k RTR
r -t 1.095047186 -s 6 -d -1 -p ACK -e 38 -c 2 -a 0 -i 0 -k MAC
+ -t 1.095621619 -s 2 -d -1 -p AODV -e 106 -c 2 -a 0 -i 0 -k MAC 
- -t 1.095621619 -s 2 -d -1 -p AODV -e 106 -c 2 -a 0 -i 0 -k MAC
h -t 1.095621619 -s 2 -d -1 -p AODV -e 106 -c 2 -a 0 -i 0 -k MAC
+ -t 1.096000000 -s 0 -d -1 -p cbr -e 1000 -c 2 -a 0 -i 12 -k AGT 
- -t 1.096000000 -s 0 -d -1 -p cbr -e 1000 -c 2 -a 0 -i 12 -k AGT
h -t 1.096000000 -s 0 -d -1 -p cbr -e 1000 -c 2 -a 0 -i 12 -k AGT
+ -t 1.096000000 -s 0 -d 6 -p cbr -e 1020 -c 2 -a 0 -i 12 -k RTR 
- -t 1.096000000 -s 0 -d 6 -p cbr -e 1020 -c 2 -a 0 -i 12 -k RTR
h -t 1.096000000 -s 0 -d 6 -p cbr -e 1020 -c 2 -a 0 -i 12 -k RTR
r -t 1.096470197 -s 3 -d -1 -p AODV -e 48 -c 2 -a 0 -i 0 -k MAC
r -t 1.096470220 -s 1 -d -1 -p AODV -e 48 -c 2 -a 0 -i 0 -k MAC
r -t 1.096495197 -s 3 -d -1 -p AODV -e 48 -c 2 -a 0 -i 0 -k RTR
r -t 1.096495220 -s 1 -d -1 -p AODV -e 48 -c 2 -a 0 -i 0 -k RTR
+ -t 1.097104970 -s 0 -d -1 -p RTS -e 44 -c 2 -a 0 -i 0 -k MAC 
- -t 1.097104970 -s 0 -d -1 -p RTS -e 44 -c 2 -a 0 -i 0 -k MAC
h -t 1.097104970 -s 0 -d -1 -p RTS -e 44 -c 2 -a 0 -i 0 -k MAC
r -t 1.097457523 -s 6 -d -1 -p RTS -e 44 -c 2 -a 0 -i 0 -k MAC
+ -t 1.097467523 -s 6 -d -1 -p CTS -e 38 -c 2 -a 0 -i 0 -k MAC 
- -t 1.097467523 -s 6 -d -1 -p CTS -e 38 -c 2 -a 0 -i 0 -k MAC
h -t 1.097467523 -s 6 -d -1 -p CTS -e 38 -c 2 -a 0 -i 0 -k MAC
r -t 1.097772076 -s 0 -d -1 -p CTS -e 38 -c 2 -a 0 -i 0 -k MAC
+ -t 1.097782076 -s 0 -d 6 -p cbr -e 1078 -c 2 -a 0 -i 4 -k MAC 
- -t 1.097782076 -s 0 -d 6 -p cbr -e 1078 -c 2 -a 0 -i 4 -k MAC
h -t 1.097782076 -s 0 -d 6 -p cbr -e 1078 -c 2 -a 0 -i 4 -k MAC
+ -t 1.104000000 -s 0 -d -1 -p cbr -e 1000 -c 2 -a 0 -i 13 -k AGT 
- -t 1.104000000 -s 0 -d -1 -p cbr -e 1000 -c 2 -a 0 -i 13 -k AGT
h -t 1.104000000 -s 0 -d -1 -p cbr -e 1000 -c 2 -a 0 -i 13 -k AGT
+ -t 1.104000000 -s 0 -d 6 -p cbr -e 1020 -c 2 -a 0 -i 13 -k RTR 
- -t 1.104000000 -s 0 -d 6 -p cbr -e 1020 -c 2 -a 0 -i 13 -k RTR
h -t 1.104000000 -s 0 -d 6 -p cbr -e 1020 -c 2 -a 0 -i 13 -k RTR
+ -t 1.104117516 -s 3 -d -1 -p AODV -e 48 -c 2 -a 0 -i 0 -k RTR 
- -t 1.104117516 -s 3 -d -1 -p AODV -e 48 -c 2 -a 0 -i 0 -k RTR
h -t 1.104117516 -s 3 -d -1 -p AODV -e 48 -c 2 -a 0 -i 0 -k RTR
+ -t 1.104332516 -s 3 -d -1 -p AODV -e 106 -c 2 -a 0 -i 0 -k MAC 
- -t 1.104332516 -s 3 -d -1 -p AODV -e 106 -c 2 -a 0 -i 0 -k MAC
h -t 1.104332516 -s 3 -d -1 -p AODV -e 106 -c 2 -a 0 -i 0 -k MAC
d -t 1.104333094 -s 2 -d -1 -p AODV -e 106 -c 2 -a 0 -i 0 -k MAC
r -t 1.105181095 -s 4 -d -1 -p AODV -e 48 -c 2 -a 0 -i 0 -k MAC
r -t 1.105206095 -s 4 -d -1 -p AODV -e 48 -c 2 -a 0 -i 0 -k RTR
+ -t 1.106298079 -s 4 -d -1 -p AODV -e 48 -c 2 -a 0 -i 0 -k RTR 
- -t 1.106298079 -s 4 -d -1 -p AODV -e 48 -c 2 -a 0 -i 0 -k RTR
h -t 1.106298079 -s 4 -d -1 -p AODV -e 48 -c 2 -a 0 -i 0 -k RTR
r -t 1.106406629 -s 6 -d 6 -p cbr -e 1020 -c 2 -a 0 -i 4 -k MAC
+ -t 1.106416629 -s 6 -d -1 -p ACK -e 38 -c 2 -a 0 -i 0 -k MAC 
- -t 1.106416629 -s 6 -d -1 -p ACK -e 38 -c 2 -a 0 -i 0 -k MAC
h -t 1.106416629 -s 6 -d -1 -p ACK -e 38 -c 2 -a 0 -i 0 -k MAC
+ -t 1.106431629 -s 6 -d 7 -p cbr -e 1020 -c 2 -a 0 -i 4 -k RTR 
- -t 1.106431629 -s 6 -d 7 -p cbr -e 1020 -c 2 -a 0 -i 4 -k RTR
h -t 1.106431629 -s 6 -d 7 -p cbr -e 1020 -c 2 -a 0 -i 4 -k RTR
+ -t 1.106573079 -s 4 -d -1 -p AODV -e 106 -c 2 -a 0 -i 0 -k MAC 
- -t 1.106573079 -s 4 -d -1 -p AODV -e 106 -c 2 -a 0 -i 0 -k MAC
h -t 1.106573079 -s 4 -d -1 -p AODV -e 106 -c 2 -a 0 -i 0 -k MAC
r -t 1.106721182 -s 0 -d -1 -p ACK -e 38 -c 2 -a 0 -i 0 -k MAC
+ -t 1.106870629 -s 6 -d -1 -p RTS -e 44 -c 2 -a 0 -i 0 -k MAC 
- -t 1.106870629 -s 6 -d -1 -p RTS -e 44 -c 2 -a 0 -i 0 -k MAC
h -t 1.106870629 -s 6 -d -1 -p RTS -e 44 -c 2 -a 0 -i 0 -k MAC
r -t 1.107223428 -s 7 -d -1 -p RTS -e 44 -c 2 -a 0 -i 0 -k MAC
r -t 1.107421631 -s 5 -d -1 -p AODV -e 48 -c 2 -a 0 -i 0 -k MAC
d -t 1.107421658 -s 3 -d -1 -p AODV -e 106 -c 2 -a 0 -i 0 -k MAC
r -t 1.107446631 -s 5 -d -1 -p AODV -e 48 -c 2 -a 0 -i 0 -k RTR
+ -t 1.107446631 -s 5 -d 4 -p AODV -e 44 -c 2 -a 0 -i 0 -k RTR 
- -t 1.107446631 -s 5 -d 4 -p AODV -e 44 -c 2 -a 0 -i 0 -k RTR
h -t 1.107446631 -s 5 -d 4 -p AODV -e 44 -c 2 -a 0 -i 0 -k RTR
+ -t 1.107701631 -s 5 -d -1 -p ARP -e 86 -c 2 -a 0 -i 0 -k MAC 
- -t 1.107701631 -s 5 -d -1 -p ARP -e 86 -c 2 -a 0 -i 0 -k MAC
h -t 1.107701631 -s 5 -d -1 -p ARP -e 86 -c 2 -a 0 -i 0 -k MAC
+ -t 1.107790629 -s 6 -d -1 -p RTS -e 44 -c 2 -a 0 -i 0 -k MAC 
- -t 1.107790629 -s 6 -d -1 -p RTS -e 44 -c 2 -a 0 -i 0 -k MAC
h -t 1.107790629 -s 6 -d -1 -p RTS -e 44 -c 2 -a 0 -i 0 -k MAC
r -t 1.108143428 -s 7 -d -1 -p RTS -e 44 -c 2 -a 0 -i 0 -k MAC
+ -t 1.108153428 -s 7 -d -1 -p CTS -e 38 -c 2 -a 0 -i 0 -k MAC 
- -t 1.108153428 -s 7 -d -1 -p CTS -e 38 -c 2 -a 0 -i 0 -k MAC
h -t 1.108153428 -s 7 -d -1 -p CTS -e 38 -c 2 -a 0 -i 0 -k MAC
r -t 1.108390183 -s 4 -d -1 -p ARP -e 28 -c 2 -a 0 -i 0 -k MAC
r -t 1.108390197 -s 11 -d -1 -p ARP -e 28 -c 2 -a 0 -i 0 -k MAC
r -t 1.108458227 -s 6 -d -1 -p CTS -e 38 -c 2 -a 0 -i 0 -k MAC
+ -t 1.108468227 -s 6 -d 7 -p cbr -e 1078 -c 2 -a 0 -i 4 -k MAC 
- -t 1.108468227 -s 6 -d 7 -p cbr -e 1078 -c 2 -a 0 -i 4 -k MAC
h -t 1.108468227 -s 6 -d 7 -p cbr -e 1078 -c 2 -a 0 -i 4 -k MAC
+ -t 1.108993226 -s 4 -d -1 -p RTS -e 44 -c 2 -a 0 -i 0 -k MAC 
- -t 1.108993226 -s 4 -d -1 -p RTS -e 44 -c 2 -a 0 -i 0 -k MAC
h -t 1.108993226 -s 4 -d -1 -p RTS -e 44 -c 2 -a 0 -i 0 -k MAC
r -t 1.109345778 -s 5 -d -1 -p RTS -e 44 -c 2 -a 0 -i 0 -k MAC
+ -t 1.109355778 -s 5 -d -1 -p CTS -e 38 -c 2 -a 0 -i 0 -k MAC 
- -t 1.109355778 -s 5 -d -1 -p CTS -e 38 -c 2 -a 0 -i 0 -k MAC
h -t 1.109355778 -s 5 -d -1 -p CTS -e 38 -c 2 -a 0 -i 0 -k MAC
r -t 1.109660330 -s 4 -d -1 -p CTS -e 38 -c 2 -a 0 -i 0 -k MAC
+ -t 1.109670330 -s 4 -d -1 -p ARP -e 86 -c 2 -a 0 -i 0 -k MAC 
- -t 1.109670330 -s 4 -d -1 -p ARP -e 86 -c 2 -a 0 -i 0 -k MAC
h -t 1.109670330 -s 4 -d -1 -p ARP -e 86 -c 2 -a 0 -i 0 -k MAC
r -t 1.110358882 -s 5 -d -1 -p ARP -e 28 -c 2 -a 0 -i 0 -k MAC
+ -t 1.110368882 -s 5 -d -1 -p ACK -e 38 -c 2 -a 0 -i 0 -k MAC 
- -t 1.110368882 -s 5 -d -1 -p ACK -e 38 -c 2 -a 0 -i 0 -k MAC
h -t 1.110368882 -s 5 -d -1 -p ACK -e 38 -c 2 -a 0 -i 0 -k MAC
r -t 1.110673434 -s 4 -d -1 -p ACK -e 38 -c 2 -a 0 -i 0 -k MAC
+ -t 1.111062882 -s 5 -d -1 -p RTS -e 44 -c 2 -a 0 -i 0 -k MAC 
- -t 1.111062882 -s 5 -d -1 -p RTS -e 44 -c 2 -a 0 -i 0 -k MAC
h -t 1.111062882 -s 5 -d -1 -p RTS -e 44 -c 2 -a 0 -i 0 -k MAC
r -t 1.111415434 -s 4 -d -1 -p RTS -e 44 -c 2 -a 0 -i 0 -k MAC
+ -t 1.111425434 -s 4 -d -1 -p CTS -e 38 -c 2 -a 0 -i 0 -k MAC 
- -t 1.111425434 -s 4 -d -1 -p CTS -e 38 -c 2 -a 0 -i 0 -k MAC
h -t 1.111425434 -s 4 -d -1 -p CTS -e 38 -c 2 -a 0 -i 0 -k MAC
r -t 1.111729986 -s 5 -d -1 -p CTS -e 38 -c 2 -a 0 -i 0 -k MAC
+ -t 1.111739986 -s 5 -d 4 -p AODV -e 102 -c 2 -a 0 -i 0 -k MAC 
- -t 1.111739986 -s 5 -d 4 -p AODV -e 102 -c 2 -a 0 -i 0 -k MAC
h -t 1.111739986 -s 5 -d 4 -p AODV -e 102 -c 2 -a 0 -i 0 -k MAC
+ -t 1.112000000 -s 0 -d -1 -p cbr -e 1000 -c 2 -a 0 -i 14 -k AGT 
- -t 1.112000000 -s 0 -d -1 -p cbr -e 1000 -c 2 -a 0 -i 14 -k AGT
h -t 1.112000000 -s 0 -d -1 -p cbr -e 1000 -c 2 -a 0 -i 14 -k AGT
+ -t 1.112000000 -s 0 -d 6 -p cbr -e 1020 -c 2 -a 0 -i 14 -k RTR 
- -t 1.112000000 -s 0 -d 6 -p cbr -e 1020 -c 2 -a 0 -i 14 -k RTR
h -t 1.112000000 -s 0 -d 6 -p cbr -e 1020 -c 2 -a 0 -i 14 -k RTR
r -t 1.112556538 -s 4 -d 4 -p AODV -e 44 -c 2 -a 0 -i 0 -k MAC
+ -t 1.112566538 -s 4 -d -1 -p ACK -e 38 -c 2 -a 0 -i 0 -k MAC 
- -t 1.112566538 -s 4 -d -1 -p ACK -e 38 -c 2 -a 0 -i 0 -k MAC
h -t 1.112566538 -s 4 -d -1 -p ACK -e 38 -c 2 -a 0 -i 0 -k MAC
+ -t 1.112581538 -s 4 -d 3 -p AODV -e 44 -c 2 -a 0 -i 0 -k RTR 