s 1.000000000 _0_ AGT  --- 0 cbr 1000 [0 0 0 0] ------- [0:0 5:0 32 0] [0] 0 0
r 1.000000000 _0_ RTR  --- 0 cbr 1000 [0 0 0 0] ------- [0:0 5:0 32 0] [0] 0 0
s 1.000000000 _0_ RTR  --- 0 AODV 48 [0 0 0 0] ------- [0:255 -1:255 30 0] [0x2 1 1 [5 0] [0 4]] (REQUEST)
s 1.000535000 _0_ MAC  --- 0 AODV 106 [0 ffffffff 0 800] ------- [0:255 -1:255 30 0] [0x2 1 1 [5 0] [0 4]] (REQUEST)
r 1.001383553 _6_ MAC  --- 0 AODV 48 [0 ffffffff 0 800] ------- [0:255 -1:255 30 0] [0x2 1 1 [5 0] [0 4]] (REQUEST)
r 1.001383774 _1_ MAC  --- 0 AODV 48 [0 ffffffff 0 800] ------- [0:255 -1:255 30 0] [0x2 1 1 [5 0] [0 4]] (REQUEST)
r 1.001408553 _6_ RTR  --- 0 AODV 48 [0 ffffffff 0 800] ------- [0:255 -1:255 30 0] [0x2 1 1 [5 0] [0 4]] (REQUEST)
r 1.001408774 _1_ RTR  --- 0 AODV 48 [0 ffffffff 0 800] ------- [0:255 -1:255 30 0] [0x2 1 1 [5 0] [0 4]] (REQUEST)
s 1.001550600 _6_ RTR  --- 0 AODV 48 [0 ffffffff 0 800] ------- [6:255 -1:255 29 0] [0x2 2 1 [5 0] [0 4]] (REQUEST)
s 1.001945600 _6_ MAC  --- 0 AODV 106 [0 ffffffff 6 800] ------- [6:255 -1:255 29 0] [0x2 2 1 [5 0] [0 4]] (REQUEST)
s 1.002290001 _1_ RTR  --- 0 AODV 48 [0 ffffffff 0 800] ------- [1:255 -1:255 29 0] [0x2 2 1 [5 0] [0 4]] (REQUEST)
r 1.002794153 _0_ MAC  --- 0 AODV 48 [0 ffffffff 6 800] ------- [6:255 -1:255 29 0] [0x2 2 1 [5 0] [0 4]] (REQUEST)
r 1.002794399 _7_ MAC  --- 0 AODV 48 [0 ffffffff 6 800] ------- [6:255 -1:255 29 0] [0x2 2 1 [5 0] [0 4]] (REQUEST)
r 1.002819153 _0_ RTR  --- 0 AODV 48 [0 ffffffff 6 800] ------- [6:255 -1:255 29 0] [0x2 2 1 [5 0] [0 4]] (REQUEST)
r 1.002819399 _7_ RTR  --- 0 AODV 48 [0 ffffffff 6 800] ------- [6:255 -1:255 29 0] [0x2 2 1 [5 0] [0 4]] (REQUEST)
s 1.002819399 _7_ RTR  --- 0 AODV 44 [0 0 0 0] ------- [7:255 0:255 30 6] [0x4 1 [5 4] 10.000000] (REPLY)
s 1.003074399 _7_ MAC  --- 0 ARP 86 [0 ffffffff 7 806] ------- [REQUEST 7/7 0/6]
r 1.003762964 _8_ MAC  --- 0 ARP 28 [0 ffffffff 7 806] ------- [REQUEST 7/7 0/6]
r 1.003763198 _6_ MAC  --- 0 ARP 28 [0 ffffffff 7 806] ------- [REQUEST 7/7 0/6]
s 1.004177596 _1_ MAC  --- 0 AODV 106 [0 ffffffff 1 800] ------- [1:255 -1:255 29 0] [0x2 2 1 [5 0] [0 4]] (REQUEST)
s 1.004178198 _6_ MAC  --- 0 RTS 44 [52e 7 6 0] 
D 1.004178997 _7_ MAC  COL 0 RTS 44 [52e 7 6 0] 
r 1.005026197 _2_ MAC  --- 0 AODV 48 [0 ffffffff 1 800] ------- [1:255 -1:255 29 0] [0x2 2 1 [5 0] [0 4]] (REQUEST)
D 1.005026370 _0_ MAC  COL 0 AODV 106 [0 ffffffff 1 800] ------- [1:255 -1:255 29 0] [0x2 2 1 [5 0] [0 4]] (REQUEST)
r 1.005051197 _2_ RTR  --- 0 AODV 48 [0 ffffffff 1 800] ------- [1:255 -1:255 29 0] [0x2 2 1 [5 0] [0 4]] (REQUEST)
s 1.006480489 _6_ MAC  --- 0 RTS 44 [52e 7 6 0] 
s 1.006692652 _2_ RTR  --- 0 AODV 48 [0 ffffffff 1 800] ------- [2:255 -1:255 28 0] [0x2 3 1 [5 0] [0 4]] (REQUEST)
r 1.006833288 _7_ MAC  --- 0 RTS 44 [52e 7 6 0] 
s 1.006843288 _7_ MAC  --- 0 CTS 38 [3f4 6 0 0] 
r 1.007148087 _6_ MAC  --- 0 CTS 38 [3f4 6 0 0] 
s 1.007158087 _6_ MAC  --- 0 ARP 86 [13a 7 6 806] ------- [REPLY 6/6 7/7]
r 1.007846886 _7_ MAC  --- 0 ARP 28 [13a 7 6 806] ------- [REPLY 6/6 7/7]
s 1.007856886 _7_ MAC  --- 0 ACK 38 [0 6 0 0] 
s 1.008000000 _0_ AGT  --- 1 cbr 1000 [0 0 0 0] ------- [0:0 5:0 32 0] [1] 0 0
r 1.008000000 _0_ RTR  --- 1 cbr 1000 [0 0 0 0] ------- [0:0 5:0 32 0] [1] 0 0
r 1.008161685 _6_ MAC  --- 0 ACK 38 [0 6 0 0] 
s 1.008370886 _7_ MAC  --- 0 RTS 44 [5ae 6 7 0] 
r 1.008723685 _6_ MAC  --- 0 RTS 44 [5ae 6 7 0] 
s 1.008733685 _6_ MAC  --- 0 CTS 38 [474 7 0 0] 
r 1.009038484 _7_ MAC  --- 0 CTS 38 [474 7 0 0] 
s 1.009048484 _7_ MAC  --- 0 AODV 102 [13a 6 7 800] ------- [7:255 0:255 30 6] [0x4 1 [5 4] 10.000000] (REPLY)
r 1.009865283 _6_ MAC  --- 0 AODV 44 [13a 6 7 800] ------- [7:255 0:255 30 6] [0x4 1 [5 4] 10.000000] (REPLY)
s 1.009875283 _6_ MAC  --- 0 ACK 38 [0 7 0 0] 
r 1.009890283 _6_ RTR  --- 0 AODV 44 [13a 6 7 800] ------- [7:255 0:255 30 6] [0x4 1 [5 4] 10.000000] (REPLY)
f 1.009890283 _6_ RTR  --- 0 AODV 44 [13a 6 7 800] ------- [7:255 0:255 29 0] [0x4 2 [5 4] 10.000000] (REPLY)
r 1.010180082 _7_ MAC  --- 0 ACK 38 [0 7 0 0] 
s 1.010449283 _6_ MAC  --- 0 ARP 86 [0 ffffffff 6 806] ------- [REQUEST 6/6 0/0]
r 1.011137836 _0_ MAC  --- 0 ARP 28 [0 ffffffff 6 806] ------- [REQUEST 6/6 0/0]
r 1.011138082 _7_ MAC  --- 0 ARP 28 [0 ffffffff 6 806] ------- [REQUEST 6/6 0/0]
s 1.011672836 _0_ MAC  --- 0 RTS 44 [52e 6 0 0] 
r 1.012025389 _6_ MAC  --- 0 RTS 44 [52e 6 0 0] 
s 1.012035389 _6_ MAC  --- 0 CTS 38 [3f4 0 0 0] 
r 1.012339942 _0_ MAC  --- 0 CTS 38 [3f4 0 0 0] 
s 1.012349942 _0_ MAC  --- 0 ARP 86 [13a 6 0 806] ------- [REPLY 0/0 6/6]
r 1.013038495 _6_ MAC  --- 0 ARP 28 [13a 6 0 806] ------- [REPLY 0/0 6/6]
s 1.013048495 _6_ MAC  --- 0 ACK 38 [0 0 0 0] 
r 1.013353048 _0_ MAC  --- 0 ACK 38 [0 0 0 0] 
s 1.013742495 _6_ MAC  --- 0 RTS 44 [5ae 0 6 0] 
r 1.014095048 _0_ MAC  --- 0 RTS 44 [5ae 0 6 0] 
s 1.014105048 _0_ MAC  --- 0 CTS 38 [474 6 0 0] 
r 1.014409601 _6_ MAC  --- 0 CTS 38 [474 6 0 0] 
s 1.014419601 _6_ MAC  --- 0 AODV 102 [13a 0 6 800] ------- [7:255 0:255 29 0] [0x4 2 [5 4] 10.000000] (REPLY)
r 1.015236154 _0_ MAC  --- 0 AODV 44 [13a 0 6 800] ------- [7:255 0:255 29 0] [0x4 2 [5 4] 10.000000] (REPLY)
s 1.015246154 _0_ MAC  --- 0 ACK 38 [0 6 0 0] 
r 1.015261154 _0_ RTR  --- 0 AODV 44 [13a 0 6 800] ------- [7:255 0:255 29 0] [0x4 2 [5 4] 10.000000] (REPLY)
s 1.015261154 _0_ RTR  --- 0 cbr 1020 [0 0 0 0] ------- [0:0 5:0 30 6] [0] 0 0
r 1.015550707 _6_ MAC  --- 0 ACK 38 [0 6 0 0] 
s 1.015800154 _0_ MAC  --- 0 RTS 44 [242e 6 0 0] 
s 1.016000000 _0_ AGT  --- 2 cbr 1000 [0 0 0 0] ------- [0:0 5:0 32 0] [2] 0 0
r 1.016000000 _0_ RTR  --- 2 cbr 1000 [0 0 0 0] ------- [0:0 5:0 32 0] [2] 0 0
s 1.016000000 _0_ RTR  --- 2 cbr 1020 [0 0 0 0] ------- [0:0 5:0 30 6] [2] 0 0
r 1.016152707 _6_ MAC  --- 0 RTS 44 [242e 6 0 0] 
s 1.016162707 _6_ MAC  --- 0 CTS 38 [22f4 0 0 0] 
r 1.016467260 _0_ MAC  --- 0 CTS 38 [22f4 0 0 0] 
s 1.016477260 _0_ MAC  --- 0 cbr 1078 [13a 6 0 800] ------- [0:0 5:0 30 6] [0] 0 0
s 1.024000000 _0_ AGT  --- 3 cbr 1000 [0 0 0 0] ------- [0:0 5:0 32 0] [3] 0 0
r 1.024000000 _0_ RTR  --- 3 cbr 1000 [0 0 0 0] ------- [0:0 5:0 32 0] [3] 0 0
s 1.024000000 _0_ RTR  --- 3 cbr 1020 [0 0 0 0] ------- [0:0 5:0 30 6] [3] 0 0
r 1.025101813 _6_ MAC  --- 0 cbr 1020 [13a 6 0 800] ------- [0:0 5:0 30 6] [0] 1 0
s 1.025111813 _6_ MAC  --- 0 ACK 38 [0 0 0 0] 
r 1.025126813 _6_ RTR  --- 0 cbr 1020 [13a 6 0 800] ------- [0:0 5:0 30 6] [0] 1 0
f 1.025126813 _6_ RTR  --- 0 cbr 1020 [13a 6 0 800] ------- [0:0 5:0 29 7] [0] 1 0
s 1.025261154 _0_ RTR  --- 1 cbr 1020 [0 0 0 0] ------- [0:0 5:0 30 6] [1] 0 0
r 1.025416366 _0_ MAC  --- 0 ACK 38 [0 0 0 0] 
s 1.025486366 _0_ MAC  --- 0 RTS 44 [242e 6 0 0] 
r 1.025838919 _6_ MAC  --- 0 RTS 44 [242e 6 0 0] 
s 1.025848919 _6_ MAC  --- 0 CTS 38 [22f4 0 0 0] 
r 1.026153472 _0_ MAC  --- 0 CTS 38 [22f4 0 0 0] 
s 1.026163472 _0_ MAC  --- 2 cbr 1078 [13a 6 0 800] ------- [0:0 5:0 30 6] [2] 0 0
s 1.032000000 _0_ AGT  --- 4 cbr 1000 [0 0 0 0] ------- [0:0 5:0 32 0] [4] 0 0
r 1.032000000 _0_ RTR  --- 4 cbr 1000 [0 0 0 0] ------- [0:0 5:0 32 0] [4] 0 0
s 1.032000000 _0_ RTR  --- 4 cbr 1020 [0 0 0 0] ------- [0:0 5:0 30 6] [4] 0 0
r 1.034788025 _6_ MAC  --- 2 cbr 1020 [13a 6 0 800] ------- [0:0 5:0 30 6] [2] 1 0
s 1.034798025 _6_ MAC  --- 0 ACK 38 [0 0 0 0] 
r 1.034813025 _6_ RTR  --- 2 cbr 1020 [13a 6 0 800] ------- [0:0 5:0 30 6] [2] 1 0
f 1.034813025 _6_ RTR  --- 2 cbr 1020 [13a 6 0 800] ------- [0:0 5:0 29 7] [2] 1 0
r 1.035102578 _0_ MAC  --- 0 ACK 38 [0 0 0 0] 
s 1.035172025 _6_ MAC  --- 0 RTS 44 [242e 7 6 0] 
r 1.035524824 _7_ MAC  --- 0 RTS 44 [242e 7 6 0] 
s 1.035534824 _7_ MAC  --- 0 CTS 38 [22f4 6 0 0] 
r 1.035839623 _6_ MAC  --- 0 CTS 38 [22f4 6 0 0] 
s 1.035849623 _6_ MAC  --- 0 cbr 1078 [13a 7 6 800] ------- [0:0 5:0 29 7] [0] 1 0
s 1.040000000 _0_ AGT  --- 5 cbr 1000 [0 0 0 0] ------- [0:0 5:0 32 0] [5] 0 0
r 1.040000000 _0_ RTR  --- 5 cbr 1000 [0 0 0 0] ------- [0:0 5:0 32 0] [5] 0 0
s 1.040000000 _0_ RTR  --- 5 cbr 1020 [0 0 0 0] ------- [0:0 5:0 30 6] [5] 0 0
r 1.044474422 _7_ MAC  --- 0 cbr 1020 [13a 7 6 800] ------- [0:0 5:0 29 7] [0] 2 0
s 1.044484422 _7_ MAC  --- 0 ACK 38 [0 6 0 0] 
r 1.044499422 _7_ RTR  --- 0 cbr 1020 [13a 7 6 800] ------- [0:0 5:0 29 7] [0] 2 0
D 1.044499422 _7_ RTR NRTE 0 cbr 1020 [13a 7 6 800] ------- [0:0 5:0 28 7] [0] 2 0
r 1.044789221 _6_ MAC  --- 0 ACK 38 [0 6 0 0] 
s 1.045279221 _6_ MAC  --- 0 RTS 44 [242e 7 6 0] 
r 1.045632020 _7_ MAC  --- 0 RTS 44 [242e 7 6 0] 
s 1.045642020 _7_ MAC  --- 0 CTS 38 [22f4 6 0 0] 
r 1.045946819 _6_ MAC  --- 0 CTS 38 [22f4 6 0 0] 
s 1.045956819 _6_ MAC  --- 2 cbr 1078 [13a 7 6 800] ------- [0:0 5:0 29 7] [2] 1 0
s 1.048000000 _0_ AGT  --- 6 cbr 1000 [0 0 0 0] ------- [0:0 5:0 32 0] [6] 0 0
r 1.048000000 _0_ RTR  --- 6 cbr 1000 [0 0 0 0] ------- [0:0 5:0 32 0] [6] 0 0
s 1.048000000 _0_ RTR  --- 6 cbr 1020 [0 0 0 0] ------- [0:0 5:0 30 6] [6] 0 0
r 1.054581618 _7_ MAC  --- 2 cbr 1020 [13a 7 6 800] ------- [0:0 5:0 29 7] [2] 2 0
s 1.054591618 _7_ MAC  --- 0 ACK 38 [0 6 0 0] 
r 1.054606618 _7_ RTR  --- 2 cbr 1020 [13a 7 6 800] ------- [0:0 5:0 29 7] [2] 2 0
D 1.054606618 _7_ RTR NRTE 2 cbr 1020 [13a 7 6 800] ------- [0:0 5:0 28 7] [2] 2 0
r 1.054896417 _6_ MAC  --- 0 ACK 38 [0 6 0 0] 
s 1.055490923 _0_ MAC  --- 0 RTS 44 [242e 6 0 0] 
r 1.055843476 _6_ MAC  --- 0 RTS 44 [242e 6 0 0] 
s 1.055853476 _6_ MAC  --- 0 CTS 38 [22f4 0 0 0] 
s 1.056000000 _0_ AGT  --- 7 cbr 1000 [0 0 0 0] ------- [0:0 5:0 32 0] [7] 0 0
r 1.056000000 _0_ RTR  --- 7 cbr 1000 [0 0 0 0] ------- [0:0 5:0 32 0] [7] 0 0
s 1.056000000 _0_ RTR  --- 7 cbr 1020 [0 0 0 0] ------- [0:0 5:0 30 6] [7] 0 0
r 1.056158029 _0_ MAC  --- 0 CTS 38 [22f4 0 0 0] 
s 1.056168029 _0_ MAC  --- 3 cbr 1078 [13a 6 0 800] ------- [0:0 5:0 30 6] [3] 0 0
s 1.064000000 _0_ AGT  --- 8 cbr 1000 [0 0 0 0] ------- [0:0 5:0 32 0] [8] 0 0
r 1.064000000 _0_ RTR  --- 8 cbr 1000 [0 0 0 0] ------- [0:0 5:0 32 0] [8] 0 0
s 1.064000000 _0_ RTR  --- 8 cbr 1020 [0 0 0 0] ------- [0:0 5:0 30 6] [8] 0 0
r 1.064792582 _6_ MAC  --- 3 cbr 1020 [13a 6 0 800] ------- [0:0 5:0 30 6] [3] 1 0
s 1.064802582 _6_ MAC  --- 0 ACK 38 [0 0 0 0] 
r 1.064817582 _6_ RTR  --- 3 cbr 1020 [13a 6 0 800] ------- [0:0 5:0 30 6] [3] 1 0
f 1.064817582 _6_ RTR  --- 3 cbr 1020 [13a 6 0 800] ------- [0:0 5:0 29 7] [3] 1 0
r 1.065107135 _0_ MAC  --- 0 ACK 38 [0 0 0 0] 
s 1.065557135 _0_ MAC  --- 0 RTS 44 [242e 6 0 0] 
r 1.065909688 _6_ MAC  --- 0 RTS 44 [242e 6 0 0] 
s 1.065919688 _6_ MAC  --- 0 CTS 38 [22f4 0 0 0] 
r 1.066224241 _0_ MAC  --- 0 CTS 38 [22f4 0 0 0] 
s 1.066234241 _0_ MAC  --- 1 cbr 1078 [13a 6 0 800] ------- [0:0 5:0 30 6] [1] 0 0
s 1.072000000 _0_ AGT  --- 9 cbr 1000 [0 0 0 0] ------- [0:0 5:0 32 0] [9] 0 0
r 1.072000000 _0_ RTR  --- 9 cbr 1000 [0 0 0 0] ------- [0:0 5:0 32 0] [9] 0 0
s 1.072000000 _0_ RTR  --- 9 cbr 1020 [0 0 0 0] ------- [0:0 5:0 30 6] [9] 0 0
r 1.074858794 _6_ MAC  --- 1 cbr 1020 [13a 6 0 800] ------- [0:0 5:0 30 6] [1] 1 0
s 1.074868794 _6_ MAC  --- 0 ACK 38 [0 0 0 0] 
r 1.074883794 _6_ RTR  --- 1 cbr 1020 [13a 6 0 800] ------- [0:0 5:0 30 6] [1] 1 0
f 1.074883794 _6_ RTR  --- 1 cbr 1020 [13a 6 0 800] ------- [0:0 5:0 29 7] [1] 1 0
r 1.075173347 _0_ MAC  --- 0 ACK 38 [0 0 0 0] 
s 1.075402794 _6_ MAC  --- 0 RTS 44 [242e 7 6 0] 
r 1.075755593 _7_ MAC  --- 0 RTS 44 [242e 7 6 0] 
s 1.075765593 _7_ MAC  --- 0 CTS 38 [22f4 6 0 0] 
r 1.076070392 _6_ MAC  --- 0 CTS 38 [22f4 6 0 0] 
s 1.076080392 _6_ MAC  --- 3 cbr 1078 [13a 7 6 800] ------- [0:0 5:0 29 7] [3] 1 0
s 1.080000000 _0_ AGT  --- 10 cbr 1000 [0 0 0 0] ------- [0:0 5:0 32 0] [10] 0 0
r 1.080000000 _0_ RTR  --- 10 cbr 1000 [0 0 0 0] ------- [0:0 5:0 32 0] [10] 0 0
s 1.080000000 _0_ RTR  --- 10 cbr 1020 [0 0 0 0] ------- [0:0 5:0 30 6] [10] 0 0
r 1.084705191 _7_ MAC  --- 3 cbr 1020 [13a 7 6 800] ------- [0:0 5:0 29 7] [3] 2 0
s 1.084715191 _7_ MAC  --- 0 ACK 38 [0 6 0 0] 
r 1.084730191 _7_ RTR  --- 3 cbr 1020 [13a 7 6 800] ------- [0:0 5:0 29 7] [3] 2 0
D 1.084730191 _7_ RTR NRTE 3 cbr 1020 [13a 7 6 800] ------- [0:0 5:0 28 7] [3] 2 0
r 1.085019990 _6_ MAC  --- 0 ACK 38 [0 6 0 0] 
s 1.085429990 _6_ MAC  --- 0 RTS 44 [242e 7 6 0] 
r 1.085782789 _7_ MAC  --- 0 RTS 44 [242e 7 6 0] 
s 1.085792789 _7_ MAC  --- 0 CTS 38 [22f4 6 0 0] 
r 1.086097588 _6_ MAC  --- 0 CTS 38 [22f4 6 0 0] 
s 1.086107588 _6_ MAC  --- 1 cbr 1078 [13a 7 6 800] ------- [0:0 5:0 29 7] [1] 1 0
s 1.088000000 _0_ AGT  --- 11 cbr 1000 [0 0 0 0] ------- [0:0 5:0 32 0] [11] 0 0
r 1.088000000 _0_ RTR  --- 11 cbr 1000 [0 0 0 0] ------- [0:0 5:0 32 0] [11] 0 0
s 1.088000000 _0_ RTR  --- 11 cbr 1020 [0 0 0 0] ------- [0:0 5:0 30 6] [11] 0 0
r 1.094732387 _7_ MAC  --- 1 cbr 1020 [13a 7 6 800] ------- [0:0 5:0 29 7] [1] 2 0
s 1.094742387 _7_ MAC  --- 0 ACK 38 [0 6 0 0] 
r 1.094757387 _7_ RTR  --- 1 cbr 1020 [13a 7 6 800] ------- [0:0 5:0 29 7] [1] 2 0
D 1.094757387 _7_ RTR NRTE 1 cbr 1020 [13a 7 6 800] ------- [0:0 5:0 28 7] [1] 2 0
r 1.095047186 _6_ MAC  --- 0 ACK 38 [0 6 0 0] 
s 1.095621619 _2_ MAC  --- 0 AODV 106 [0 ffffffff 2 800] ------- [2:255 -1:255 28 0] [0x2 3 1 [5 0] [0 4]] (REQUEST)
s 1.096000000 _0_ AGT  --- 12 cbr 1000 [0 0 0 0] ------- [0:0 5:0 32 0] [12] 0 0
r 1.096000000 _0_ RTR  --- 12 cbr 1000 [0 0 0 0] ------- [0:0 5:0 32 0] [12] 0 0
s 1.096000000 _0_ RTR  --- 12 cbr 1020 [0 0 0 0] ------- [0:0 5:0 30 6] [12] 0 0
r 1.096470197 _3_ MAC  --- 0 AODV 48 [0 ffffffff 2 800] ------- [2:255 -1:255 28 0] [0x2 3 1 [5 0] [0 4]] (REQUEST)
r 1.096470220 _1_ MAC  --- 0 AODV 48 [0 ffffffff 2 800] ------- [2:255 -1:255 28 0] [0x2 3 1 [5 0] [0 4]] (REQUEST)
r 1.096495197 _3_ RTR  --- 0 AODV 48 [0 ffffffff 2 800] ------- [2:255 -1:255 28 0] [0x2 3 1 [5 0] [0 4]] (REQUEST)
r 1.096495220 _1_ RTR  --- 0 AODV 48 [0 ffffffff 2 800] ------- [2:255 -1:255 28 0] [0x2 3 1 [5 0] [0 4]] (REQUEST)
s 1.097104970 _0_ MAC  --- 0 RTS 44 [242e 6 0 0] 
r 1.097457523 _6_ MAC  --- 0 RTS 44 [242e 6 0 0] 
s 1.097467523 _6_ MAC  --- 0 CTS 38 [22f4 0 0 0] 
r 1.097772076 _0_ MAC  --- 0 CTS 38 [22f4 0 0 0] 
s 1.097782076 _0_ MAC  --- 4 cbr 1078 [13a 6 0 800] ------- [0:0 5:0 30 6] [4] 0 0
s 1.104000000 _0_ AGT  --- 13 cbr 1000 [0 0 0 0] ------- [0:0 5:0 32 0] [13] 0 0
r 1.104000000 _0_ RTR  --- 13 cbr 1000 [0 0 0 0] ------- [0:0 5:0 32 0] [13] 0 0
s 1.104000000 _0_ RTR  --- 13 cbr 1020 [0 0 0 0] ------- [0:0 5:0 30 6] [13] 0 0
s 1.104117516 _3_ RTR  --- 0 AODV 48 [0 ffffffff 2 800] ------- [3:255 -1:255 27 0] [0x2 4 1 [5 0] [0 4]] (REQUEST)
s 1.104332516 _3_ MAC  --- 0 AODV 106 [0 ffffffff 3 800] ------- [3:255 -1:255 27 0] [0x2 4 1 [5 0] [0 4]] (REQUEST)
D 1.104333094 _2_ MAC  COL 0 AODV 106 [0 ffffffff 3 800] ------- [3:255 -1:255 27 0] [0x2 4 1 [5 0] [0 4]] (REQUEST)
r 1.105181095 _4_ MAC  --- 0 AODV 48 [0 ffffffff 3 800] ------- [3:255 -1:255 27 0] [0x2 4 1 [5 0] [0 4]] (REQUEST)
r 1.105206095 _4_ RTR  --- 0 AODV 48 [0 ffffffff 3 800] ------- [3:255 -1:255 27 0] [0x2 4 1 [5 0] [0 4]] (REQUEST)
s 1.106298079 _4_ RTR  --- 0 AODV 48 [0 ffffffff 3 800] ------- [4:255 -1:255 26 0] [0x2 5 1 [5 0] [0 4]] (REQUEST)
r 1.106406629 _6_ MAC  --- 4 cbr 1020 [13a 6 0 800] ------- [0:0 5:0 30 6] [4] 1 0
s 1.106416629 _6_ MAC  --- 0 ACK 38 [0 0 0 0] 
r 1.106431629 _6_ RTR  --- 4 cbr 1020 [13a 6 0 800] ------- [0:0 5:0 30 6] [4] 1 0
f 1.106431629 _6_ RTR  --- 4 cbr 1020 [13a 6 0 800] ------- [0:0 5:0 29 7] [4] 1 0
s 1.106573079 _4_ MAC  --- 0 AODV 106 [0 ffffffff 4 800] ------- [4:255 -1:255 26 0] [0x2 5 1 [5 0] [0 4]] (REQUEST)
r 1.106721182 _0_ MAC  --- 0 ACK 38 [0 0 0 0] 
s 1.106870629 _6_ MAC  --- 0 RTS 44 [242e 7 6 0] 
r 1.107223428 _7_ MAC  --- 0 RTS 44 [242e 7 6 0] 
r 1.107421631 _5_ MAC  --- 0 AODV 48 [0 ffffffff 4 800] ------- [4:255 -1:255 26 0] [0x2 5 1 [5 0] [0 4]] (REQUEST)
D 1.107421658 _3_ MAC  COL 0 AODV 106 [0 ffffffff 4 800] ------- [4:255 -1:255 26 0] [0x2 5 1 [5 0] [0 4]] (REQUEST)
r 1.107446631 _5_ RTR  --- 0 AODV 48 [0 ffffffff 4 800] ------- [4:255 -1:255 26 0] [0x2 5 1 [5 0] [0 4]] (REQUEST)
s 1.107446631 _5_ RTR  --- 0 AODV 44 [0 0 0 0] ------- [5:255 0:255 30 4] [0x4 1 [5 4] 10.000000] (REPLY)
s 1.107701631 _5_ MAC  --- 0 ARP 86 [0 ffffffff 5 806] ------- [REQUEST 5/5 0/4]
s 1.107790629 _6_ MAC  --- 0 RTS 44 [242e 7 6 0] 
r 1.108143428 _7_ MAC  --- 0 RTS 44 [242e 7 6 0] 
s 1.108153428 _7_ MAC  --- 0 CTS 38 [22f4 6 0 0] 
r 1.108390183 _4_ MAC  --- 0 ARP 28 [0 ffffffff 5 806] ------- [REQUEST 5/5 0/4]
r 1.108390197 _11_ MAC  --- 0 ARP 28 [0 ffffffff 5 806] ------- [REQUEST 5/5 0/4]
r 1.108458227 _6_ MAC  --- 0 CTS 38 [22f4 6 0 0] 
s 1.108468227 _6_ MAC  --- 4 cbr 1078 [13a 7 6 800] ------- [0:0 5:0 29 7] [4] 1 0
s 1.108993226 _4_ MAC  --- 0 RTS 44 [52e 5 4 0] 
r 1.109345778 _5_ MAC  --- 0 RTS 44 [52e 5 4 0] 
s 1.109355778 _5_ MAC  --- 0 CTS 38 [3f4 4 0 0] 
r 1.109660330 _4_ MAC  --- 0 CTS 38 [3f4 4 0 0] 
s 1.109670330 _4_ MAC  --- 0 ARP 86 [13a 5 4 806] ------- [REPLY 4/4 5/5]
r 1.110358882 _5_ MAC  --- 0 ARP 28 [13a 5 4 806] ------- [REPLY 4/4 5/5]
s 1.110368882 _5_ MAC  --- 0 ACK 38 [0 4 0 0] 
r 1.110673434 _4_ MAC  --- 0 ACK 38 [0 4 0 0] 
s 1.111062882 _5_ MAC  --- 0 RTS 44 [5ae 4 5 0] 
r 1.111415434 _4_ MAC  --- 0 RTS 44 [5ae 4 5 0] 
s 1.111425434 _4_ MAC  --- 0 CTS 38 [474 5 0 0] 
r 1.111729986 _5_ MAC  --- 0 CTS 38 [474 5 0 0] 
s 1.111739986 _5_ MAC  --- 0 AODV 102 [13a 4 5 800] ------- [5:255 0:255 30 4] [0x4 1 [5 4] 10.000000] (REPLY)
s 1.112000000 _0_ AGT  --- 14 cbr 1000 [0 0 0 0] ------- [0:0 5:0 32 0] [14] 0 0
r 1.112000000 _0_ RTR  --- 14 cbr 1000 [0 0 0 0] ------- [0:0 5:0 32 0] [14] 0 0
s 1.112000000 _0_ RTR  --- 14 cbr 1020 [0 0 0 0] ------- [0:0 5:0 30 6] [14] 0 0
r 1.112556538 _4_ MAC  --- 0 AODV 44 [13a 4 5 800] ------- [5:255 0:255 30 4] [0x4 1 [5 4] 10.000000] (REPLY)
s 1.112566538 _4_ MAC  --- 0 ACK 38 [0 5 0 0] 
r 1.112581538 _4_ RTR  --- 0 AODV 44 [13a 4 5 800] ------- [5:255 0:255 30 4] [0x4 1 [5 4] 10.000000] (REPLY)
f 1.112581538 _4_ RTR  --- 0 AODV 44 [13a 4 5 800] ------- [5:255 0:255 29 3] [0x4 2 [5 4] 10.000000] (REPLY)
r 1.112871090 _5_ MAC  --- 0 ACK 38 [0 5 0 0] 
s 1.113100538 _4_ MAC  --- 0 ARP 86 [0 ffffffff 4 806] ------- [REQUEST 4/4 0/3]
D 1.113101117 _3_ MAC  COL 0 ARP 86 [0 ffffffff 4 806] ------- [REQUEST 4/4 0/3]
r 1.113789090 _5_ MAC  --- 0 ARP 28 [0 ffffffff 4 806] ------- [REQUEST 4/4 0/3]
r 1.117093026 _7_ MAC  --- 4 cbr 1020 [13a 7 6 800] ------- [0:0 5:0 29 7] [4] 2 0
s 1.117103026 _7_ MAC  --- 0 ACK 38 [0 6 0 0] 
r 1.117118026 _7_ RTR  --- 4 cbr 1020 [13a 7 6 800] ------- [0:0 5:0 29 7] [4] 2 0
D 1.117118026 _7_ RTR NRTE 4 cbr 1020 [13a 7 6 800] ------- [0:0 5:0 28 7] [4] 2 0
r 1.117407825 _6_ MAC  --- 0 ACK 38 [0 6 0 0] 
s 1.118262332 _0_ MAC  --- 0 RTS 44 [242e 6 0 0] 
r 1.118614885 _6_ MAC  --- 0 RTS 44 [242e 6 0 0] 
s 1.118624885 _6_ MAC  --- 0 CTS 38 [22f4 0 0 0] 
r 1.118929437 _0_ MAC  --- 0 CTS 38 [22f4 0 0 0] 
s 1.118939437 _0_ MAC  --- 5 cbr 1078 [13a 6 0 800] ------- [0:0 5:0 30 6] [5] 0 0
s 1.120000000 _0_ AGT  --- 15 cbr 1000 [0 0 0 0] ------- [0:0 5:0 32 0] [15] 0 0
r 1.120000000 _0_ RTR  --- 15 cbr 1000 [0 0 0 0] ------- [0:0 5:0 32 0] [15] 0 0
s 1.120000000 _0_ RTR  --- 15 cbr 1020 [0 0 0 0] ------- [0:0 5:0 30 6] [15] 0 0
r 1.127563990 _6_ MAC  --- 5 cbr 1020 [13a 6 0 800] ------- [0:0 5:0 30 6] [5] 1 0
s 1.127573990 _6_ MAC  --- 0 ACK 38 [0 0 0 0] 
r 1.127588990 _6_ RTR  --- 5 cbr 1020 [13a 6 0 800] ------- [0:0 5:0 30 6] [5] 1 0
f 1.127588990 _6_ RTR  --- 5 cbr 1020 [13a 6 0 800] ------- [0:0 5:0 29 7] [5] 1 0
r 1.127878543 _0_ MAC  --- 0 ACK 38 [0 0 0 0] 
s 1.127928543 _0_ MAC  --- 0 RTS 44 [242e 6 0 0] 
s 1.128000000 _0_ AGT  --- 16 cbr 1000 [0 0 0 0] ------- [0:0 5:0 32 0] [16] 0 0
r 1.128000000 _0_ RTR  --- 16 cbr 1000 [0 0 0 0] ------- [0:0 5:0 32 0] [16] 0 0
s 1.128000000 _0_ RTR  --- 16 cbr 1020 [0 0 0 0] ------- [0:0 5:0 30 6] [16] 0 0
r 1.128281096 _6_ MAC  --- 0 RTS 44 [242e 6 0 0] 
s 1.128291096 _6_ MAC  --- 0 CTS 38 [22f4 0 0 0] 
r 1.128595649 _0_ MAC  --- 0 CTS 38 [22f4 0 0 0] 
s 1.128605649 _0_ MAC  --- 6 cbr 1078 [13a 6 0 800] ------- [0:0 5:0 30 6] [6] 0 0
s 1.136000000 _0_ AGT  --- 17 cbr 1000 [0 0 0 0] ------- [0:0 5:0 32 0] [17] 0 0
r 1.136000000 _0_ RTR  --- 17 cbr 1000 [0 0 0 0] ------- [0:0 5:0 32 0] [17] 0 0
s 1.136000000 _0_ RTR  --- 17 cbr 1020 [0 0 0 0] ------- [0:0 5:0 30 6] [17] 0 0
r 1.137230202 _6_ MAC  --- 6 cbr 1020 [13a 6 0 800] ------- [0:0 5:0 30 6] [6] 1 0
s 1.137240202 _6_ MAC  --- 0 ACK 38 [0 0 0 0] 
r 1.137255202 _6_ RTR  --- 6 cbr 1020 [13a 6 0 800] ------- [0:0 5:0 30 6] [6] 1 0
f 1.137255202 _6_ RTR  --- 6 cbr 1020 [13a 6 0 800] ------- [0:0 5:0 29 7] [6] 1 0
r 1.137544755 _0_ MAC  --- 0 ACK 38 [0 0 0 0] 
s 1.137814755 _0_ MAC  --- 0 RTS 44 [242e 6 0 0] 
r 1.138167308 _6_ MAC  --- 0 RTS 44 [242e 6 0 0] 
s 1.138177308 _6_ MAC  --- 0 CTS 38 [22f4 0 0 0] 
r 1.138481861 _0_ MAC  --- 0 CTS 38 [22f4 0 0 0] 
s 1.138491861 _0_ MAC  --- 7 cbr 1078 [13a 6 0 800] ------- [0:0 5:0 30 6] [7] 0 0
s 1.144000000 _0_ AGT  --- 18 cbr 1000 [0 0 0 0] ------- [0:0 5:0 32 0] [18] 0 0
r 1.144000000 _0_ RTR  --- 18 cbr 1000 [0 0 0 0] ------- [0:0 5:0 32 0] [18] 0 0
s 1.144000000 _0_ RTR  --- 18 cbr 1020 [0 0 0 0] ------- [0:0 5:0 30 6] [18] 0 0
r 1.147116414 _6_ MAC  --- 7 cbr 1020 [13a 6 0 800] ------- [0:0 5:0 30 6] [7] 1 0
s 1.147126414 _6_ MAC  --- 0 ACK 38 [0 0 0 0] 
r 1.147141414 _6_ RTR  --- 7 cbr 1020 [13a 6 0 800] ------- [0:0 5:0 30 6] [7] 1 0
f 1.147141414 _6_ RTR  --- 7 cbr 1020 [13a 6 0 800] ------- [0:0 5:0 29 7] [7] 1 0
r 1.147430967 _0_ MAC  --- 0 ACK 38 [0 0 0 0] 
s 1.147740414 _6_ MAC  --- 0 RTS 44 [242e 7 6 0] 
r 1.148093213 _7_ MAC  --- 0 RTS 44 [242e 7 6 0] 
s 1.148103213 _7_ MAC  --- 0 CTS 38 [22f4 6 0 0] 
r 1.148408012 _6_ MAC  --- 0 CTS 38 [22f4 6 0 0] 
s 1.148418012 _6_ MAC  --- 5 cbr 1078 [13a 7 6 800] ------- [0:0 5:0 29 7] [5] 1 0
s 1.152000000 _0_ AGT  --- 19 cbr 1000 [0 0 0 0] ------- [0:0 5:0 32 0] [19] 0 0
r 1.152000000 _0_ RTR  --- 19 cbr 1000 [0 0 0 0] ------- [0:0 5:0 32 0] [19] 0 0
s 1.152000000 _0_ RTR  --- 19 cbr 1020 [0 0 0 0] ------- [0:0 5:0 30 6] [19] 0 0
r 1.157042811 _7_ MAC  --- 5 cbr 1020 [13a 7 6 800] ------- [0:0 5:0 29 7] [5] 2 0
s 1.157052811 _7_ MAC  --- 0 ACK 38 [0 6 0 0] 
r 1.157067811 _7_ RTR  --- 5 cbr 1020 [13a 7 6 800] ------- [0:0 5:0 29 7] [5] 2 0
D 1.157067811 _7_ RTR NRTE 5 cbr 1020 [13a 7 6 800] ------- [0:0 5:0 28 7] [5] 2 0
r 1.157357610 _6_ MAC  --- 0 ACK 38 [0 6 0 0] 
s 1.157567610 _6_ MAC  --- 0 RTS 44 [242e 7 6 0] 
r 1.157920409 _7_ MAC  --- 0 RTS 44 [242e 7 6 0] 
s 1.157930409 _7_ MAC  --- 0 CTS 38 [22f4 6 0 0] 
r 1.158235208 _6_ MAC  --- 0 CTS 38 [22f4 6 0 0] 
s 1.158245208 _6_ MAC  --- 6 cbr 1078 [13a 7 6 800] ------- [0:0 5:0 29 7] [6] 1 0
s 1.160000000 _0_ AGT  --- 20 cbr 1000 [0 0 0 0] ------- [0:0 5:0 32 0] [20] 0 0
r 1.160000000 _0_ RTR  --- 20 cbr 1000 [0 0 0 0] ------- [0:0 5:0 32 0] [20] 0 0
s 1.160000000 _0_ RTR  --- 20 cbr 1020 [0 0 0 0] ------- [0:0 5:0 30 6] [20] 0 0
r 1.166870008 _7_ MAC  --- 6 cbr 1020 [13a 7 6 800] ------- [0:0 5:0 29 7] [6] 2 0
s 1.166880008 _7_ MAC  --- 0 ACK 38 [0 6 0 0] 
r 1.166895008 _7_ RTR  --- 6 cbr 1020 [13a 7 6 800] ------- [0:0 5:0 29 7] [6] 2 0
D 1.166895008 _7_ RTR NRTE 6 cbr 1020 [13a 7 6 800] ------- [0:0 5:0 28 7] [6] 2 0
r 1.167184807 _6_ MAC  --- 0 ACK 38 [0 6 0 0] 
s 1.167454807 _6_ MAC  --- 0 RTS 44 [242e 7 6 0] 
r 1.167807606 _7_ MAC  --- 0 RTS 44 [242e 7 6 0] 
s 1.167817606 _7_ MAC  --- 0 CTS 38 [22f4 6 0 0] 
s 1.168000000 _0_ AGT  --- 21 cbr 1000 [0 0 0 0] ------- [0:0 5:0 32 0] [21] 0 0
r 1.168000000 _0_ RTR  --- 21 cbr 1000 [0 0 0 0] ------- [0:0 5:0 32 0] [21] 0 0
s 1.168000000 _0_ RTR  --- 21 cbr 1020 [0 0 0 0] ------- [0:0 5:0 30 6] [21] 0 0
r 1.168122405 _6_ MAC  --- 0 CTS 38 [22f4 6 0 0] 
s 1.168132405 _6_ MAC  --- 7 cbr 1078 [13a 7 6 800] ------- [0:0 5:0 29 7] [7] 1 0
s 1.176000000 _0_ AGT  --- 22 cbr 1000 [0 0 0 0] ------- [0:0 5:0 32 0] [22] 0 0
r 1.176000000 _0_ RTR  --- 22 cbr 1000 [0 0 0 0] ------- [0:0 5:0 32 0] [22] 0 0
s 1.176000000 _0_ RTR  --- 22 cbr 1020 [0 0 0 0] ------- [0:0 5:0 30 6] [22] 0 0
r 1.176757204 _7_ MAC  --- 7 cbr 1020 [13a 7 6 800] ------- [0:0 5:0 29 7] [7] 2 0
s 1.176767204 _7_ MAC  --- 0 ACK 38 [0 6 0 0] 
r 1.176782204 _7_ RTR  --- 7 cbr 1020 [13a 7 6 800] ------- [0:0 5:0 29 7] [7] 2 0
D 1.176782204 _7_ RTR NRTE 7 cbr 1020 [13a 7 6 800] ------- [0:0 5:0 28 7] [7] 2 0
r 1.177072003 _6_ MAC  --- 0 ACK 38 [0 6 0 0] 
s 1.177566509 _0_ MAC  --- 0 RTS 44 [242e 6 0 0] 
r 1.177919062 _6_ MAC  --- 0 RTS 44 [242e 6 0 0] 
s 1.177929062 _6_ MAC  --- 0 CTS 38 [22f4 0 0 0] 
r 1.178233615 _0_ MAC  --- 0 CTS 38 [22f4 0 0 0] 
s 1.178243615 _0_ MAC  --- 8 cbr 1078 [13a 6 0 800] ------- [0:0 5:0 30 6] [8] 0 0
s 1.184000000 _0_ AGT  --- 23 cbr 1000 [0 0 0 0] ------- [0:0 5:0 32 0] [23] 0 0
r 1.184000000 _0_ RTR  --- 23 cbr 1000 [0 0 0 0] ------- [0:0 5:0 32 0] [23] 0 0
s 1.184000000 _0_ RTR  --- 23 cbr 1020 [0 0 0 0] ------- [0:0 5:0 30 6] [23] 0 0
r 1.186868168 _6_ MAC  --- 8 cbr 1020 [13a 6 0 800] ------- [0:0 5:0 30 6] [8] 1 0
s 1.186878168 _6_ MAC  --- 0 ACK 38 [0 0 0 0] 
r 1.186893168 _6_ RTR  --- 8 cbr 1020 [13a 6 0 800] ------- [0:0 5:0 30 6] [8] 1 0
f 1.186893168 _6_ RTR  --- 8 cbr 1020 [13a 6 0 800] ------- [0:0 5:0 29 7] [8] 1 0
r 1.187182721 _0_ MAC  --- 0 ACK 38 [0 0 0 0] 
s 1.187232721 _0_ MAC  --- 0 RTS 44 [242e 6 0 0] 
r 1.187585274 _6_ MAC  --- 0 RTS 44 [242e 6 0 0] 
s 1.187595274 _6_ MAC  --- 0 CTS 38 [22f4 0 0 0] 
r 1.187899827 _0_ MAC  --- 0 CTS 38 [22f4 0 0 0] 
s 1.187909827 _0_ MAC  --- 9 cbr 1078 [13a 6 0 800] ------- [0:0 5:0 30 6] [9] 0 0
s 1.192000000 _0_ AGT  --- 24 cbr 1000 [0 0 0 0] ------- [0:0 5:0 32 0] [24] 0 0
r 1.192000000 _0_ RTR  --- 24 cbr 1000 [0 0 0 0] ------- [0:0 5:0 32 0] [24] 0 0
s 1.192000000 _0_ RTR  --- 24 cbr 1020 [0 0 0 0] ------- [0:0 5:0 30 6] [24] 0 0
r 1.196534380 _6_ MAC  --- 9 cbr 1020 [13a 6 0 800] ------- [0:0 5:0 30 6] [9] 1 0
s 1.196544380 _6_ MAC  --- 0 ACK 38 [0 0 0 0] 
r 1.196559380 _6_ RTR  --- 9 cbr 1020 [13a 6 0 800] ------- [0:0 5:0 30 6] [9] 1 0
f 1.196559380 _6_ RTR  --- 9 cbr 1020 [13a 6 0 800] ------- [0:0 5:0 29 7] [9] 1 0
r 1.196848933 _0_ MAC  --- 0 ACK 38 [0 0 0 0] 
s 1.197138933 _0_ MAC  --- 0 RTS 44 [242e 6 0 0] 
r 1.197491486 _6_ MAC  --- 0 RTS 44 [242e 6 0 0] 
s 1.197501486 _6_ MAC  --- 0 CTS 38 [22f4 0 0 0] 
r 1.197806039 _0_ MAC  --- 0 CTS 38 [22f4 0 0 0] 
s 1.197816039 _0_ MAC  --- 10 cbr 1078 [13a 6 0 800] ------- [0:0 5:0 30 6] [10] 0 0
s 1.200000000 _0_ AGT  --- 25 cbr 1000 [0 0 0 0] ------- [0:0 5:0 32 0] [25] 0 0
r 1.200000000 _0_ RTR  --- 25 cbr 1000 [0 0 0 0] ------- [0:0 5:0 32 0] [25] 0 0
s 1.200000000 _0_ RTR  --- 25 cbr 1020 [0 0 0 0] ------- [0:0 5:0 30 6] [25] 0 0
r 1.206440592 _6_ MAC  --- 10 cbr 1020 [13a 6 0 800] ------- [0:0 5:0 30 6] [10] 1 0
s 1.206450592 _6_ MAC  --- 0 ACK 38 [0 0 0 0] 
r 1.206465592 _6_ RTR  --- 10 cbr 1020 [13a 6 0 800] ------- [0:0 5:0 30 6] [10] 1 0
f 1.206465592 _6_ RTR  --- 10 cbr 1020 [13a 6 0 800] ------- [0:0 5:0 29 7] [10] 1 0
r 1.206755145 _0_ MAC  --- 0 ACK 38 [0 0 0 0] 
s 1.206864592 _6_ MAC  --- 0 RTS 44 [242e 7 6 0] 
r 1.207217391 _7_ MAC  --- 0 RTS 44 [242e 7 6 0] 
s 1.207227391 _7_ MAC  --- 0 CTS 38 [22f4 6 0 0] 
r 1.207532190 _6_ MAC  --- 0 CTS 38 [22f4 6 0 0] 
s 1.207542190 _6_ MAC  --- 8 cbr 1078 [13a 7 6 800] ------- [0:0 5:0 29 7] [8] 1 0
s 1.208000000 _0_ AGT  --- 26 cbr 1000 [0 0 0 0] ------- [0:0 5:0 32 0] [26] 0 0
r 1.208000000 _0_ RTR  --- 26 cbr 1000 [0 0 0 0] ------- [0:0 5:0 32 0] [26] 0 0
s 1.208000000 _0_ RTR  --- 26 cbr 1020 [0 0 0 0] ------- [0:0 5:0 30 6] [26] 0 0
s 1.216000000 _0_ AGT  --- 27 cbr 1000 [0 0 0 0] ------- [0:0 5:0 32 0] [27] 0 0
r 1.216000000 _0_ RTR  --- 27 cbr 1000 [0 0 0 0] ------- [0:0 5:0 32 0] [27] 0 0
s 1.216000000 _0_ RTR  --- 27 cbr 1020 [0 0 0 0] ------- [0:0 5:0 30 6] [27] 0 0
r 1.216166989 _7_ MAC  --- 8 cbr 1020 [13a 7 6 800] ------- [0:0 5:0 29 7] [8] 2 0
s 1.216176989 _7_ MAC  --- 0 ACK 38 [0 6 0 0] 
r 1.216191989 _7_ RTR  --- 8 cbr 1020 [13a 7 6 800] ------- [0:0 5:0 29 7] [8] 2 0
D 1.216191989 _7_ RTR NRTE 8 cbr 1020 [13a 7 6 800] ------- [0:0 5:0 28 7] [8] 2 0
r 1.216481788 _6_ MAC  --- 0 ACK 38 [0 6 0 0] 
s 1.216811788 _6_ MAC  --- 0 RTS 44 [242e 7 6 0] 
r 1.217164587 _7_ MAC  --- 0 RTS 44 [242e 7 6 0] 
s 1.217174587 _7_ MAC  --- 0 CTS 38 [22f4 6 0 0] 
r 1.217479386 _6_ MAC  --- 0 CTS 38 [22f4 6 0 0] 
s 1.217489386 _6_ MAC  --- 9 cbr 1078 [13a 7 6 800] ------- [0:0 5:0 29 7] [9] 1 0
s 1.224000000 _0_ AGT  --- 28 cbr 1000 [0 0 0 0] ------- [0:0 5:0 32 0] [28] 0 0
r 1.224000000 _0_ RTR  --- 28 cbr 1000 [0 0 0 0] ------- [0:0 5:0 32 0] [28] 0 0
s 1.224000000 _0_ RTR  --- 28 cbr 1020 [0 0 0 0] ------- [0:0 5:0 30 6] [28] 0 0
r 1.226114185 _7_ MAC  --- 9 cbr 1020 [13a 7 6 800] ------- [0:0 5:0 29 7] [9] 2 0
s 1.226124185 _7_ MAC  --- 0 ACK 38 [0 6 0 0] 
r 1.226139185 _7_ RTR  --- 9 cbr 1020 [13a 7 6 800] ------- [0:0 5:0 29 7] [9] 2 0
D 1.226139185 _7_ RTR NRTE 9 cbr 1020 [13a 7 6 800] ------- [0:0 5:0 28 7] [9] 2 0
r 1.226428984 _6_ MAC  --- 0 ACK 38 [0 6 0 0] 
s 1.226498984 _6_ MAC  --- 0 RTS 44 [242e 7 6 0] 
r 1.226851783 _7_ MAC  --- 0 RTS 44 [242e 7 6 0] 
s 1.226861783 _7_ MAC  --- 0 CTS 38 [22f4 6 0 0] 
r 1.227166582 _6_ MAC  --- 0 CTS 38 [22f4 6 0 0] 
s 1.227176582 _6_ MAC  --- 10 cbr 1078 [13a 7 6 800] ------- [0:0 5:0 29 7] [10] 1 0
s 1.232000000 _0_ AGT  --- 29 cbr 1000 [0 0 0 0] ------- [0:0 5:0 32 0] [29] 0 0
r 1.232000000 _0_ RTR  --- 29 cbr 1000 [0 0 0 0] ------- [0:0 5:0 32 0] [29] 0 0
s 1.232000000 _0_ RTR  --- 29 cbr 1020 [0 0 0 0] ------- [0:0 5:0 30 6] [29] 0 0
r 1.235801381 _7_ MAC  --- 10 cbr 1020 [13a 7 6 800] ------- [0:0 5:0 29 7] [10] 2 0
s 1.235811381 _7_ MAC  --- 0 ACK 38 [0 6 0 0] 
r 1.235826381 _7_ RTR  --- 10 cbr 1020 [13a 7 6 800] ------- [0:0 5:0 29 7] [10] 2 0
D 1.235826381 _7_ RTR NRTE 10 cbr 1020 [13a 7 6 800] ------- [0:0 5:0 28 7] [10] 2 0